<?xml version="1.0"?>
<VTKFile type="UnstructuredGrid"  version="0.1"  >
<UnstructuredGrid>
<Piece  NumberOfPoints="784" NumberOfCells="1320">
<Points>
<DataArray  type="Float64"  NumberOfComponents="3"  format="ascii">266913.131276 586512.314988 0  266738.13716 587762.325998 0  266363.132677 589012.328643 0  266175.641078 590169.601714 0  265666.575631 591040.7699119999 0  264875.64001 591687.766419 0  264900.636161 591845.049083 0  266088.14152 592012.3229499999 0  265561.959259 592661.17101 0  264288.136855 593037.368683 0  263865.194033 593999.8486949999 0  263850.641856 593236.729596 0  263625.634872 592756.525286 0  262689.574249 593299.848918 0  262475.636737 594003.0907310001 0  261934.554452 594340.929792 0  261725.631329 594932.094409 0  261729.256443 595728.498809 0  262138.136044 595012.330523 0  262288.141035 596262.333669 0  261488.994028 597511.480605 0  261234.15567 598316.338928 0  260815.635063 599014.863821 0  261400.643658 599389.7367680001 0  261322.963374 600022.185065 0  261119.455248 600931.061306 0  261607.436504 601293.0629359999 0  260807.446929 602089.899812 0  260025.642878 602988.868697 0  259613.135827 603937.3854499999 0  259050.643123 604100.987861 0  258411.880065 603988.6335979999 0  257764.357469 604449.872569 0  257971.239668 605320.429125 0  258041.396867 605740.635381 0  257188.143339 606987.394312 0  256038.141198 608112.3554550001 0  254788.141633 609087.4026939999 0  253588.140656 609812.362881 0  252338.135706 609737.4048949999 0  251088.138116 609787.404055 0  249963.12851 610287.399466 0  248613.130524 610462.365857 0  247363.132198 610687.407659 0  246113.130532 610837.411551 0  245832.347438 610918.209918 0  245016.946433 610958.5639439999 0  244313.129646 610762.372259 0  244400.622144 611378.093316 0  243939.669208 612460.8930899999 0  242960.649733 611984.892792 0  242170.381438 611919.647351 0  241888.122919 611112.375656 0  241393.380757 610467.6456149999 0  240594.157528 611306.369822 0  240525.621947 610804.648112 0  240363.123632 610512.3745050001 0  239113.123247 610262.374278 0  239813.12126 609037.412459 0  240588.122952 607812.368199 0  241013.119545 606625.9534560001 0  241454.373249 605724.888025 0  242238.120107 604687.3993 0  243088.121248 603462.362766 0  242860.319451 603007.3932640001 0  241563.116617 603812.361344 0  241778.400913 604327.642217 0  242059.837234 604824.879102 0  241475.620201 604923.2402390001 0  241462.182234 605449.881372 0  240906.219606 605674.888222 0  240241.856192 606891.125066 0  239891.734044 607841.012479 0  239048.653431 608724.889805 0  238118.054545 608974.895967 0  238888.111029 607337.406468 0  239738.119992 606212.362729 0  240288.12044 605687.4075229999 0  240380.212307 604729.521696 0  239347.309632 604603.204501 0  238888.112036 604387.408787 0  237913.11173 604687.401386 0  236784.172023 604499.882783 0  236883.408793 603717.08334 0  236154.933927 603595.565605 0  235688.103943 602912.369264 0  235763.108033 601662.366516 0  236363.110805 600412.35884 0  236738.107995 599162.356577 0  236525.607944 598482.2412899999 0  236138.109208 599362.357613 0  235725.063048 600325.4466510001 0  235091.948926 601408.5220979999 0  235188.10921 600312.366344 0  234375.602405 600833.9674270001 0  234663.109308 599912.358011 0  234138.105122 600062.365644 0  233955.307245 599029.561063 0  233338.103791 598387.401556 0  233988.09795 597862.356384 0  235138.101489 596637.3947750001 0  235563.1039 595387.392428 0  236513.103639 594212.356312 0  237163.10684 592987.3929869999 0  238313.103031 591862.3515540001 0  239513.107028 590812.3512640001 0  240638.102135 589787.387271 0  241463.109549 588587.378486 0  242294.489816 587443.735215 0  242913.101099 586512.341804 0  243544.066915 585474.859604 0  243040.448415 585184.975583 0  242438.10214 585337.38015 0  241313.102353 586562.339499 0  240538.107104 587787.382449 0  240114.641085 588588.939407 0  239388.100256 589437.382238 0  238188.104456 590512.346358 0  236938.100507 591362.349798 0  235813.10453 592537.396388 0  234864.502938 593178.7753880001 0  234463.097651 592862.357267 0  235113.0965 591662.3545979999 0  235713.101522 590412.346099 0  235777.688431 589976.7582779999 0  234943.583145 590706.265132 0  234462.482256 591490.2841159999 0  233801.497784 592112.940187 0  233388.099101 591787.394208 0  234013.093099 590437.393065 0  234776.217248 587148.7548100001 0  235163.093726 586562.3486189999 0  235313.098918 585483.229012 0  235250.59732 584662.298153 0  235588.093896 583337.379493 0  236329.432041 582199.858992 0  237188.096234 581462.3349939999 0  237463.088521 580212.335511 0  238350.592558 579057.652616 0  238591.415797 578574.847681 0  238313.094106 577612.328905 0  239229.696732 577695.769664 0  240195.161018 577513.008613 0  240614.996733 577149.8518770001 0  240663.091715 577412.332622 0  240288.092486 578662.334085 0  239942.357258 579508.095811 0  240438.100019 580212.3334220001 0  241338.095553 580387.375355 0  241238.099828 579137.369157 0  241788.097003 577887.370889 0  241983.554649 577241.9220939999 0  242054.178239 576927.8105029999 0  242588.100699 575737.366175 0  243149.324833 574898.583978 0  243695.278626 573919.517981 0  244268.494418 573724.8454239999 0  244995.134063 573930.2767810001 0  245417.314363 573391.601898 0  243450.599125 571859.479773 0  245776.797908 572599.8353060001 0  246779.639852 572973.285167 0  248034.741935 573186.082054 0  249413.10651 573162.3205520001 0  250496.922226 573271.1521899999 0  251613.105126 573237.3551319999 0  252421.824577 572846.032906 0  253256.245022 572580.4733130001 0  253739.471933 571960.9547369999 0  254174.511864 572149.8346569999 0  254484.944333 571684.194807 0  254384.108649 570891.346712 0  254344.002752 570218.26407 0  255025.609604 570829.0294979999 0  255715.005913 570489.264586 0  256218.846343 570774.828355 0  256834.349083 570508.5908 0  257390.092515 570014.308325 0  257624.431042 568493.478911 0  259355.811717 569380.021819 0  260033.372814 569617.066669 0  262679.741751 570320.699974 0  263289.115756 569524.817815 0  263463.114338 570512.301061 0  264638.198419 570687.3443539999 0  265058.220065 571334.378467 0  265447.561421 572077.90485 0  265488.125257 573137.3446020001 0  265131.937715 573963.293593 0  265432.389648 575093.068786 0  265638.122314 576338.029955 0  265750.630817 577371.8281319999 0  265738.570663 578561.9098850001 0  265875.630866 579139.630549 0  266213.129247 579862.311842 0  266563.130472 581112.314509 0  266238.135356 582362.310259 0  265938.12863 583612.320897 0  265738.131342 584762.3210189999 0  266875.638633 585365.358768 0  264018.7239399826 593650.4646671159 0  262236.3944351029 595831.1252656333 0  241846.246678 605206.1436625 0  240200.622106 608424.8903290001 0  240943.4862974102 610939.7757535663 0  236550.6094 599787.3577085 0  238528.1212051503 608102.9081793013 0  244413.4891967989 572609.5960859474 0  236382.0474488751 598808.3067022427 0  235369.601910944 600933.5380148316 0  235413.099011 591037.3503485 0  235446.2251831186 590266.6553871984 0  240475.5921005 578037.3333535 0  240413.173949154 577324.4280286073 0  240574.037899 606283.0066440001 0  263857.9179445 593618.2891454998 0  264153.4303974913 593343.916675058 0  242042.1833925 604946.7714812499 0  241650.3099635 605465.51584375 0  244613.6985165 572229.6575395 0  236631.8579695 598822.2989335 0  235140.029068 600860.444221 0  241767.7287175 604874.0596705 0  242140.15174975 604817.0853906251 0  234781.8558075 600573.1668855001 0  242091.167571125 604881.9284359375 0  234519.3558565 600373.162719 0  254604.8337712102 583989.0014118921 0  250699.5846056537 594617.3297041012 0  250540.4796469513 602258.2940568649 0  248483.7490186612 580334.7345534252 0  258549.2190328319 577893.951823392 0  257067.0067473103 590016.5327808241 0  243285.0921999099 596333.923437875 0  248333.1386145258 589098.0389905117 0  256142.8445072741 595883.3911551933 0  260245.1368072523 583315.2785712298 0  253472.3380211276 578932.2908163272 0  246432.3347504817 599884.5019511909 0  261555.9240922556 588041.186709004 0  247293.1100123104 605823.8307887657 0  246458.2798550911 593168.8646574575 0  252840.0183145193 588226.5564648228 0  249828.2874404451 584740.7888937403 0  255409.5660975206 600458.8956828594 0  260819.9733392385 574219.403683011 0  252584.2262054711 605722.6603825617 0  254049.8830611471 592547.4852571967 0  250015.4356193061 598425.2225922942 0  245872.072249477 577604.9761853142 0  262002.1583249522 579753.4663046852 0  257732.6630933878 586227.970805314 0  250242.5556457866 577017.3316409125 0  244921.6453001869 581816.6358421432 0  256520.3890639471 580904.824006648 0  240779.0970645865 599524.6679555867 0  257100.1829219198 574459.5922545703 0  239912.2630002034 595231.1172704464 0  244703.0875078634 590068.6945953515 0  242549.5490268674 592874.3693043783 0  251586.0465921376 581796.2215047925 0  246643.189997516 596527.447801719 0  251049.7658069622 591057.6752245198 0  253014.5731561695 596998.6601086652 0  238680.2197353724 584542.2309791476 0  259715.365803504 591937.1938619445 0  254097.157218761 575731.4494927844 0  246806.6408589328 586139.0877599345 0  246136.1179750556 602959.471719323 0  253520.7033332401 602835.180253843 0  244125.4295793909 607538.9817227355 0  252546.8895354472 599881.3279113505 0  258289.0983523553 600397.640191779 0  247518.7952199645 583037.3718217331 0  263140.3959879661 582529.2228421422 0  262894.8586894067 585442.3590432997 0  256968.6320599076 593040.7691844478 0  243573.0187527719 600218.2795730785 0  258888.5766127351 595139.7745218446 0  262588.7569809347 576734.8569237856 0  259318.4257992262 580601.2540325444 0  249963.3812725965 607065.7205847671 0  257494.5307999607 583482.5893534871 0  258906.4757205145 572278.8089438241 0  237751.446593475 587300.5805003279 0  255142.4708720699 604956.7580261135 0  258485.4978753244 597756.9250383095 0  255516.7820591553 587791.39641967 0  239758.4692108706 601926.8203218657 0  255873.0092222999 577739.5085867504
[...]
<PointData  Scalars="f_32-0"> 
<DataArray  type="Float64"  Name="f_32-0"  format="ascii">8.6318284292545225e+06  8.6832640031907633e+06  8.7415407469313573e+06  8.7887628893067110e+06  8.8196127831971925e+06  8.8654030550354663e+06  8.8828416243801564e+06  8.8996049415879399e+06  8.8987967384692654e+06  8.9040244455352593e+06  8.9100086900949087e+06  8.9076633785886504e+06  8.9110342999202069e+06  8.9865595706573203e+06  9.0517275946212132e+06  9.1183844654134959e+06  9.2210883081397228e+06  9.3497291466291826e+06  9.3681211046429332e+06  9.3867662595817633e+06  9.4898345957870521e+06  9.5750841668034773e+06  9.6772046921844985e+06  9.7362782187886145e+06  9.7644591158020664e+06  9.8261242756713051e+06  9.8445680334249660e+06  9.8750505205686018e+06  9.9383558779797722e+06  9.9835060930012055e+06  9.9971654712179322e+06  1.0035990690970236e+07  1.0139511211205563e+07  1.0227251017470285e+07  1.0243282329524351e+07  1.0311519943007203e+07  1.0385237223541258e+07  1.0449450324156256e+07  1.0490618171559628e+07  1.0525647824715350e+07  1.0577097282480961e+07  1.0627155010021791e+07  1.0674555688583625e+07  1.0719111334267523e+07  1.0760356261865318e+07  1.0769090366454927e+07  1.0791267046766855e+07  1.0818392710845698e+07  1.0838098227063078e+07  1.0846744421380967e+07  1.0848655961111337e+07  1.0850456439155838e+07  1.0850214882001121e+07  1.0853588531373451e+07  1.0860885024860224e+07  1.0860328415485010e+07  1.0860383708993783e+07  1.0863069996500656e+07  1.0855323590053674e+07  1.0826781301663864e+07  1.0788544547505520e+07  1.0752554695637751e+07  1.0687321619088436e+07  1.0566617624394016e+07  1.0531698907405194e+07  1.0609971888631716e+07  1.0639920592543112e+07  1.0648145927144045e+07  1.0656708638542796e+07  1.0670405753000157e+07  1.0690074006347204e+07  1.0761875466636341e+07  1.0785066719678771e+07  1.0795887356006822e+07  1.0798054506631646e+07  1.0786357653404519e+07  1.0751267720477972e+07  1.0709956697873008e+07  1.0652127166703401e+07  1.0636430446451243e+07  1.0637025802211879e+07  1.0640782483999977e+07  1.0641780502622435e+07  1.0638418088708881e+07  1.0636167623975398e+07  1.0633059717451792e+07  1.0620462840056371e+07  1.0587060739760535e+07  1.0533561328747258e+07  1.0514332877755838e+07  1.0542865732513361e+07  1.0556892856164314e+07  1.0561545590158941e+07  1.0557735570003929e+07  1.0559400957351178e+07  1.0555405139990449e+07  1.0554568695456341e+07  1.0548905355546305e+07  1.0546103197255172e+07  1.0539438831066191e+07  1.0483678285856130e+07  1.0418936216174822e+07  1.0324008267469430e+07  1.0218470566508967e+07  1.0071182640114827e+07  9.8636961110670324e+06  9.6000024306498896e+06  9.3213014884915967e+06  9.0805825036052782e+06  8.9185287386487871e+06  8.8105014034197126e+06  8.8721763826069962e+06  9.0083706219734084e+06  9.3259897111926693e+06  9.5342076112179440e+06  9.6188460572329033e+06  9.6938112444398813e+06  9.7765898217734899e+06  9.8332336032380238e+06  9.8715826083065495e+06  9.8798689160960913e+06  9.8799485096435118e+06  9.8671526923724618e+06  9.8321296645502355e+06  9.8197143370348271e+06  9.8462468135462813e+06  9.8627424925461467e+06  9.8679153252658304e+06  9.8679130499959569e+06  9.8509759068558924e+06  9.7382737572931740e+06  9.6996564135400895e+06  9.6316730524011515e+06  9.5904128224570267e+06  9.5315386534155998e+06  9.4673520851398818e+06  9.3962524700358156e+06  9.3470415293509066e+06  9.3331427141226586e+06  9.3408719012373816e+06  9.3489317658902910e+06  9.3482298615183029e+06  9.3516407467042394e+06  9.3533280873819161e+06  9.3531208656664416e+06  9.3398323165015709e+06  9.2943403704558518e+06  9.1633361955880150e+06  8.8823526985820550e+06  8.6644499013329670e+06  8.5333546372068245e+06  8.4755479822303373e+06  8.4542440211739652e+06  8.3790771002501929e+06  8.3279846940402593e+06  8.2876524541507037e+06  8.2722315321334023e+06  8.2210551880488675e+06  8.1739898358662827e+06  8.2008301749050450e+06  8.1651365559616517e+06  8.0967016440800056e+06  7.9537034369709035e+06  7.8067893534484003e+06  7.7358446412159521e+06  7.7207636738985861e+06  7.7552975136126503e+06  7.8199825883522322e+06  7.8763364267652826e+06  7.9105437400006000e+06  7.9886401863320572e+06  8.0331397403292414e+06  8.0378831309138071e+06  8.0414684503876306e+06  8.0680452276655063e+06  8.0940568359064152e+06  8.1491783820652682e+06  8.2029735472226711e+06  8.2359689269734975e+06  8.2489501882390212e+06  8.2647161291657779e+06  8.3278862556876037e+06  8.3363546502072103e+06  8.3366874455456287e+06  8.3439850612529302e+06  8.3436785811786214e+06  8.3407430244172756e+06  8.3319607542607998e+06  8.3151354477910819e+06  8.2893152575585889e+06  8.2638749650815092e+06  8.2433609676358216e+06  8.2238834614428040e+06  8.2233741992599387e+06  8.2357040164600825e+06  8.2646940648100842e+06  8.3044455084601352e+06  8.3816538053566134e+06  8.5058200382989831e+06  8.5932845479719490e+06  8.9094138789788857e+06  9.3731731907221507e+06  1.0724191965062723e+07  1.0844265971693031e+07  1.0859988913486425e+07  1.0562124760683684e+07  1.0794971795598416e+07  8.1929050073442766e+06  1.0527716354442941e+07  1.0560616421293056e+07  9.8523045864456668e+06  9.8295410928843655e+06  9.3497646976055671e+06  9.3529766181141194e+06  1.0732099341018319e+07  8.9094130351791382e+06  8.9078966575156096e+06  1.0706829044927346e+07  1.0739609971067363e+07  8.1929098419829765e+06  1.0519154556424249e+07  1.0560618966713332e+07  1.0649444814591572e+07  1.0697400831286509e+07  1.0558697701483607e+07  1.0702183203596042e+07  1.0558674189646952e+07  7.8836266367794061e+06  9.2691945027303603e+06  1.0132633257539432e+07  7.9108418428188516e+06  7.8711164993879572e+06  8.2045593389944350e+06  1.0058759008227214e+07  8.5652915296202376e+06  9.3046571962709650e+06  8.0930019815740511e+06  7.6041820142918630e+06  1.0066841574406585e+07  8.5368987777271438e+06  1.0569566655951142e+07  9.3082151195642594e+06  8.0235094457032168e+06  8.2986824255241686e+06  9.7426044731426612e+06  8.2091475509523442e+06  1.0384351214449340e+07  8.7842504015644751e+06  9.7283544356523771e+06  8.1102156294635655e+06  7.9796548906581569e+06  7.8746262288903948e+06  7.6376024286461668e+06  8.4368051336046569e+06  7.8980103671169886e+06  1.0443851586789804e+07  7.9717980007530218e+06  1.0212686020134686e+07  8.9987994135617167e+06  9.7345166019988954e+06  7.9975865921490667e+06  9.7941253808266111e+06  8.5985925087337103e+06  9.4620936682064962e+06  9.4223084563403074e+06  8.8160171857883353e+06  7.6042305476941392e+06  8.5550755552300084e+06  1.0387200858839652e+07  1.0107126163746065e+07  1.0752321456388356e+07  9.7799542968245372e+06  9.7863049758079592e+06  8.3035266664076727e+06  8.1678921094981181e+06  8.4331172293485384e+06  8.8417508955204096e+06  1.0341156164528135e+07  9.2453338838239051e+06  8.1834646397817796e+06  7.9383805032481859e+06  1.0543045465118987e+07  7.9373421525964830e+06  8.1906302167904694e+06  9.6554385880111512e+06  1.0255708532143254e+07  9.5391492059917375e+06  7.7400463377199899e+06  1.0579832616946772e+07  7.6953505546698458e+06  8.7880147568449210e+06  8.9081890897483677e+06  9.0344821382626016e+06  8.4286209158336893e+06  7.8958537890888210e+06  8.6534935623374768e+06  8.2243186036523869e+06  7.7577624744169181e+06  7.9069838346133418e+06  8.2637222568994015e+06  8.2366628848528238e+06  1.0703079867582830e+07  1.0379111260637311e+07  8.0765168135138564e+06  1.0614643648147237e+07  1.0086965780210258e+07  9.9607538279312830e+06  1.0415712853533432e+07  9.2664849578760173e+06  8.5916594681778196e+06  9.4889765941910744e+06  9.9639746535969712e+06  8.3194583488371959e+06  1.0311209972780854e+07  7.8059432108915402e+06  9.1905295437389072e+06  8.3054824935420286e+06  7.8119395543436576e+06  9.4594553426576648e+06  1.0272092884859549e+07  8.8539212274017036e+06  9.7090381629517358e+06  8.7579500700696893e+06  9.9877444191083722e+06  8.0722119024209771e+06  8.0502132000339534e+06  8.1241811537878923e+06  1.0385568296488456e+07  9.3379696521547027e+06  8.1429280425237147e+06  1.0463347793615215e+07  8.9210276431536190e+06  1.0537559123157475e+07  8.2737598137395950e+06  1.0709302608188238e+07  1.0701755989856951e+07  8.3704838213345828e+06  8.8831882744197678e+06  1.0705072270114530e+07  1.0761148165634098e+07  1.0492419635621242e+07  1.0527036308450960e+07  9.8042987214541044e+06  7.9789930561512439e+06  1.0444173116117585e+07  1.0266767075387079e+07  8.4383886318420451e+06  8.8776040041487049e+06  8.7748870283215567e+06  1.0749035886756325e+07  1.0699996264796846e+07  9.1228852837251369e+06  1.0618984046944370e+07  1.0635234985235214e+07  1.0669357687367929e+07  1.0765649665323080e+07  8.7330303747079745e+06  8.0935754041496348e+06  9.8130176469010841e+06  8.1098968416556101e+06  8.8332427479922883e+06  8.1849823186832238e+06  9.7310750454298910e+06  1.0835772536791148e+07  9.5619574608393069e+06  9.8299941355775185e+06  1.0501530750427147e+07  8.9165916217765883e+06  8.2374986692500897e+06  9.8183761782707851e+06  7.6553758479531817e+06  8.2793907429385381e+06  1.0524151762818247e+07  1.0473933547565673e+07  9.2974185367421284e+06  1.0835494115819080e+07  7.7120514658356914e+06  1.0571633765927544e+07  9.5177160915393792e+06  8.3324625494607184e+06  7.9625559917068928e+06  7.7852959450321719e+06  9.9723448875389174e+06  1.0506639665638654e+07  1.0455346070032252e+07  9.7745276607915796e+06  1.0732833569635570e+07  9.2838359638478458e+06  8.1823810493834428e+06  8.1826179114296651e+06  8.1806119262998356e+06  1.0704571552595133e+07  1.0715749230350623e+07  1.0720255914110767e+07  1.0247327805270242e+07  1.0445244362238763e+07  1.0724966229503611e+07  1.0649860180628868e+07  9.5983723751294278e+06  1.0858314419939380e+07  1.0856428647090582e+07  9.0957160909134448e+06  8.2303207932781409e+06  9.3253806950230990e+06  1.0536515999578821e+07  9.0309001630551852e+06  9.4269398104219642e+06  1.0841718903770415e+07  9.1698592166401800e+06  1.0048067815763129e+07  8.3697770391489128e+06  8.4571224509592112e+06  8.4144514463769477e+06  8.5009305222896114e+06  1.0545723290738272e+07  8.8755774172088988e+06  8.8984741613968294e+06  8.8497156150320880e+06  8.8937553457239531e+06  8.8035111163512729e+06  8.3249485716618774e+06  8.2791420447067851e+06  8.8899492259295173e+06  8.3796729642212717e+06  9.8773527684316933e+06  9.8765532920968663e+06  1.0851576748135647e+07  9.3868487055511791e+06  9.0733750888018999e+06  8.6908070366533119e+06  8.7185972045420520e+06  8.7841737549783941e+06  8.9357616064313948e+06  8.8057060368811749e+06  8.9048921369657200e+06  9.1754688943668939e+06  8.9515568510295078e+06  9.0819535326360576e+06  9.3555136682411376e+06  9.2123930638188887e+06  8.6734702419023626e+06  8.9218810075896438e+06  7.8707508668504087e+06  7.9337397823619107e+06  7.8334402389327865e+06  7.7666737650376111e+06  7.7691682963265013e+06  7.7189402483339403e+06  7.7286319135770863e+06  7.7030918118782202e+06  7.7462578850936759e+06  7.8111394424551874e+06  8.2670666145610521e+06  8.2533650762257073e+06  8.2533797427714914e+06  8.2323685078967558e+06  8.2418046717923582e+06  8.2222831021947060e+06  8.2127930698373383e+06  8.2278699118934413e+06  8.2285945046861395e+06  8.2123073748374823e+06  8.2123583587054582e+06  8.2167285787557885e+06  8.2311016655175304e+06  8.2757289619873110e+06  8.2433593852266539e+06  7.7554805463554738e+06  7.9170793310119137e+06  7.8640708485466167e+06  7.8366660393826710e+06  9.5165471354086250e+06  9.3762163379242104e+06  9.1592072544897869e+06  9.3561003144655228e+06  9.9692831622476913e+06  1.0266044870249609e+07  1.0043627361522770e+07  1.0216746539977012e+07  8.0954256737792548e+06  7.8506464074064866e+06  7.8236006328988038e+06  7.9322665542239128e+06  7.9573497962387539e+06  7.8373445181550179e+06  7.9070964968621992e+06  7.8971866253478816e+06  7.7752210745092584e+06  7.9694207072964050e+06  8.5382367485450450e+06  8.5199488110332098e+06  7.9296069390370008e+06  8.1632111418426689e+06  8.1775588447065074e+06  1.0139288318554593e+07  9.9063438486921620e+06  8.5531248549617305e+06  8.5287746064497195e+06  8.7409494962488748e+06  8.4495367127385773e+06  8.6893904940692484e+06  8.6028783070780467e+06  9.0674027004020326e+06  9.3681231671627890e+06  9.2368153959132265e+06  7.9639500334023889e+06  8.1142556333684390e+06  8.2566700837071408e+06  7.9933859570288276e+06  7.5382376853180788e+06  7.7782828156032031e+06  7.7903372561283214e+06  7.5224023151588254e+06  7.6296210395681094e+06  7.7672098133408139e+06  7.6461234051842606e+06  9.8709304634815566e+06  1.0217488381588722e+07  9.9886087462104466e+06  1.0268162408012228e+07  1.0489001525901938e+07  9.5915037594141103e+06  9.0697767550726123e+06  9.5092744096330218e+06  9.3028175275135506e+06  7.8370792832723167e+06  8.0854035277487347e+06  8.1683552647187412e+06  7.8653808716028566e+06  9.9269861543892995e+06  9.7339867753866389e+06  9.7639686569578517e+06  9.5951718011999559e+06  8.1091929072698830e+06  8.1973916217724029e+06  8.6929057448617332e+06  8.7805065076184440e+06  8.5118186301418804e+06  9.7415028606483508e+06  9.5941266034851931e+06  9.8475817743316814e+06  9.6028417202110775e+06  8.2465103756105509e+06  8.0080617601608792e+06  7.9390480228164047e+06  8.0574632030390911e+06  8.1075119934176784e+06  8.2289975371409850e+06  8.0118298161769425e+06  8.0891028152645631e+06  7.9288215253479164e+06  8.0343222489304552e+06  8.0481462305682581e+06  8.0880877944252221e+06  7.8921878325653942e+06  7.7345696823714115e+06  8.0248024617771255e+06  7.6842756271126140e+06  7.5086087919224063e+06  7.6629548037177101e+06  7.7504603995970543e+06  7.7325422011712352e+06  7.5689231715384731e+06  7.6610548971287562e+06  8.3300864538142793e+06  8.6944667162276171e+06  8.4160536767625175e+06  8.2301463196490696e+06  7.9255377751587639e+06  7.9429292799410298e+06  7.7799645418882985e+06  7.8861398943646448e+06  7.7855020340236751e+06  8.1002606350797117e+06  7.8007479966004565e+06  8.0261579757030271e+06  7.9730488032876002e+06  8.0485913482110463e+06  7.8741691022292171e+06  8.8886373365667574e+06  8.8546499255613815e+06  9.1537959584528524e+06  9.1987518381481227e+06  9.7126088295433018e+06  7.9312055563905258e+06  7.8823823841057792e+06  9.6309409234588891e+06  8.8075414235675707e+06  8.4389127753640674e+06  8.3811979618138829e+06  8.7559714361383319e+06  9.6073427069745623e+06  9.4694662205535937e+06  9.3347515292353798e+06  9.3059156012092233e+06  8.8083515801297445e+06  8.5262671090828199e+06  7.6343647817222094e+06  7.6160860055419961e+06  7.6904037096534846e+06  8.4563537713749409e+06  8.6343329097991046e+06  1.0160228971558044e+07  1.0339812699494598e+07  9.9443147612625863e+06  1.0251633053754849e+07  1.0024959292041266e+07  9.8951178546332363e+06  9.5988420856237784e+06  9.6307262693693191e+06  8.1279169583746670e+06  8.1288981710335510e+06  8.5013229585292768e+06  9.0053241005972326e+06  8.1331320888184970e+06  8.1744062941865241e+06  8.2098261832290776e+06  7.9809702258141888e+06  8.0543633578477371e+06  7.9413950046216529e+06  7.8997635982910004e+06  7.7150465521890605e+06  8.5774193496353943e+06  8.8113618969033472e+06  8.9097754313500114e+06  8.9963788004908599e+06  9.0362021515730396e+06  8.9404504403522201e+06  8.9594027849934287e+06  8.2407114067828171e+06  7.9884077484690482e+06  7.7582622293155016e+06  7.9471015300980480e+06  7.8532791192129329e+06  7.7971325548471119e+06  8.2470772948413882e+06  8.1737652408704283e+06  7.9609556602555355e+06  1.0131176210690899e+07  8.0480386247606091e+06  7.8954587168138111e+06  8.7337420777693093e+06  9.0641514992659241e+06  9.5319870750732832e+06  9.3500747805126328e+06  8.1621461254585441e+06  8.2528749924350325e+06  7.8859001631201329e+06  8.8196058615173362e+06  8.2033606910574213e+06  9.0407053511040397e+06  7.6439152232015906e+06  7.7072630379082179e+06  9.1242037112081293e+06  7.7653844866815358e+06  9.4421758184290677e+06  7.9241454552828707e+06  7.8339886201761933e+06  7.8776292863872517e+06  7.8213446711875787e+06  7.9358419551597480e+06  8.6310777758991364e+06  7.5453979797297567e+06  7.6851303259565439e+06  7.6101841340361787e+06  1.0097109340826472e+07  8.3236562418258749e+06  7.9245696465617912e+06  7.9338617381838877e+06  8.0129266937419195e+06  8.1291537691602260e+06  9.6253850902194493e+06  9.6632352688929960e+06  7.9403133749963939e+06  7.9782839569935426e+06  7.7790585582441678e+06  7.7432894110836359e+06  7.5535644314191630e+06  8.2670159512780979e+06  8.5606950079744197e+06  8.6992093272172473e+06  8.4658065804504883e+06  8.7749357563095577e+06  7.5293367946901647e+06  7.6900635257154061e+06  7.6053036334227966e+06  7.6455454538413994e+06  9.6858474233032875e+06  7.9179373379905177e+06  7.9356018884038879e+06  7.9629739199765744e+06  7.8195520870020557e+06  7.7732104775808277e+06  7.8244835172678931e+06  7.7873901458036955e+06  7.6609934120535776e+06  7.7311882810588051e+06  7.6642314256559331e+06  8.0608800188245941e+06  9.9077094518724084e+06  9.9670754202826414e+06  1.0050757185069883e+07  9.2165169092065524e+06  9.5328059728042614e+06  7.9145676904040929e+06  7.8094989805833232e+06  7.7731889969798373e+06  7.8496531285522804e+06  8.9498443725639433e+06  8.6648368594759628e+06  8.7326767349002119e+06  8.0076555950588435e+06  8.0220740177116264e+06  8.0486065905139381e+06  8.0449802867524978e+06  8.1334243942517079e+06  8.0649599368412234e+06  7.9604163644817173e+06  9.1962522322905250e+06  8.2073026795220189e+06  8.1754375004798640e+06  8.1922321185734859e+06  8.9960213216349948e+06  8.9734819105365518e+06  8.9776988424161710e+06  7.6349312943069795e+06  7.6841207877288386e+06  7.7500722646712381e+06  7.7795710222906293e+06  8.2289890874122176e+06  8.2053722939540455e+06  9.1230183174018711e+06  9.2550674576867241e+06  9.1822163430733643e+06  9.1023356316909567e+06  9.1052509075386412e+06  9.1435641214927007e+06  9.0591685687228199e+06  7.8142236890136926e+06  8.2171653289992614e+06  7.7139488561454657e+06  9.5573349636330791e+06  7.8698363248652015e+06  7.8491634002447939e+06  7.9632910605032332e+06  7.7932522056636838e+06  7.9271440447160080e+06  7.9029658844997631e+06  7.7580980603400497e+06  7.7795508044267399e+06  8.0297631388591379e+06  7.8957892249765778e+06  8.0306633995867446e+06  8.6602914618726633e+06  8.6605467522830293e+06  7.9732558825493259e+06  8.0432766738988664e+06  7.4896413639850160e+06  7.4986885255736280e+06  7.7166399564808840e+06  7.4862351782430401e+06  7.7107090246854825e+06  7.6139597445662320e+06  7.7652595204763189e+06  1.0066743453825075e+07  7.8755646038337536e+06  8.0058701765753161e+06  7.9526344075835971e+06  9.6517508097237945e+06  9.6611155750287771e+06  9.5858938440560047e+06  7.9905027175389780e+06  8.1403106956630573e+06  7.9671494599624844e+06  7.7239024081214601e+06  8.1616164877816336e+06  8.2255741290808879e+06  7.6994753757624822e+06  7.7334978536463371e+06  9.0127443136735223e+06  8.9712790948603991e+06  9.1002267604239117e+06  7.6495828988510696e+06  8.1897482900098003e+06  </DataArray> 
</PointData> 
</Piece>
</UnstructuredGrid>
</VTKFile>