<?xml version="1.0"?>
<VTKFile type="UnstructuredGrid"  version="0.1"  >
<UnstructuredGrid>
<Piece  NumberOfPoints="784" NumberOfCells="1320">
<Points>
<DataArray  type="Float64"  NumberOfComponents="3"  format="ascii">266913.131276 586512.314988 0  266738.13716 587762.325998 0  266363.132677 589012.328643 0  266175.641078 590169.601714 0  265666.575631 591040.7699119999 0  264875.64001 591687.766419 0  264900.636161 591845.049083 0  266088.14152 592012.3229499999 0  265561.959259 592661.17101 0  264288.136855 593037.368683 0  263865.194033 593999.8486949999 0  263850.641856 593236.729596 0  263625.634872 592756.525286 0  262689.574249 593299.848918 0  262475.636737 594003.0907310001 0  261934.554452 594340.929792 0  261725.631329 594932.094409 0  261729.256443 595728.498809 0  262138.136044 595012.330523 0  262288.141035 596262.333669 0  261488.994028 597511.480605 0  261234.15567 598316.338928 0  260815.635063 599014.863821 0  261400.643658 599389.7367680001 0  261322.963374 600022.185065 0  261119.455248 600931.061306 0  261607.436504 601293.0629359999 0  260807.446929 602089.899812 0  260025.642878 602988.868697 0  259613.135827 603937.3854499999 0  259050.643123 604100.987861 0  258411.880065 603988.6335979999 0  257764.357469 604449.872569 0  257971.239668 605320.429125 0  258041.396867 605740.635381 0  257188.143339 606987.394312 0  256038.141198 608112.3554550001 0  254788.141633 609087.4026939999 0  253588.140656 609812.362881 0  252338.135706 609737.4048949999 0  251088.138116 609787.404055 0  249963.12851 610287.399466 0  248613.130524 610462.365857 0  247363.132198 610687.407659 0  246113.130532 610837.411551 0  245832.347438 610918.209918 0  245016.946433 610958.5639439999 0  244313.129646 610762.372259 0  244400.622144 611378.093316 0  243939.669208 612460.8930899999 0  242960.649733 611984.892792 0  242170.381438 611919.647351 0  241888.122919 611112.375656 0  241393.380757 610467.6456149999 0  240594.157528 611306.369822 0  240525.621947 610804.648112 0  240363.123632 610512.3745050001 0  239113.123247 610262.374278 0  239813.12126 609037.412459 0  240588.122952 607812.368199 0  241013.119545 606625.9534560001 0  241454.373249 605724.888025 0  242238.120107 604687.3993 0  243088.121248 603462.362766 0  242860.319451 603007.3932640001 0  241563.116617 603812.361344 0  241778.400913 604327.642217 0  242059.837234 604824.879102 0  241475.620201 604923.2402390001 0  241462.182234 605449.881372 0  240906.219606 605674.888222 0  240241.856192 606891.125066 0  239891.734044 607841.012479 0  239048.653431 608724.889805 0  238118.054545 608974.895967 0  238888.111029 607337.406468 0  239738.119992 606212.362729 0  240288.12044 605687.4075229999 0  240380.212307 604729.521696 0  239347.309632 604603.204501 0  238888.112036 604387.408787 0  237913.11173 604687.401386 0  236784.172023 604499.882783 0  236883.408793 603717.08334 0  236154.933927 603595.565605 0  235688.103943 602912.369264 0  235763.108033 601662.366516 0  236363.110805 600412.35884 0  236738.107995 599162.356577 0  236525.607944 598482.2412899999 0  236138.109208 599362.357613 0  235725.063048 600325.4466510001 0  235091.948926 601408.5220979999 0  235188.10921 600312.366344 0  234375.602405 600833.9674270001 0  234663.109308 599912.358011 0  234138.105122 600062.365644 0  233955.307245 599029.561063 0  233338.103791 598387.401556 0  233988.09795 597862.356384 0  235138.101489 596637.3947750001 0  235563.1039 595387.392428 0  236513.103639 594212.356312 0  237163.10684 592987.3929869999 0  238313.103031 591862.3515540001 0  239513.107028 590812.3512640001 0  240638.102135 589787.387271 0  241463.109549 588587.378486 0  242294.489816 587443.735215 0  242913.101099 586512.341804 0  243544.066915 585474.859604 0  243040.448415 585184.975583 0  242438.10214 585337.38015 0  241313.102353 586562.339499 0  240538.107104 587787.382449 0  240114.641085 588588.939407 0  239388.100256 589437.382238 0  238188.104456 590512.346358 0  236938.100507 591362.349798 0  235813.10453 592537.396388 0  234864.502938 593178.7753880001 0  234463.097651 592862.357267 0  235113.0965 591662.3545979999 0  235713.101522 590412.346099 0  235777.688431 589976.7582779999 0  234943.583145 590706.265132 0  234462.482256 591490.2841159999 0  233801.497784 592112.940187 0  233388.099101 591787.394208 0  234013.093099 590437.393065 0  234776.217248 587148.7548100001 0  235163.093726 586562.3486189999 0  235313.098918 585483.229012 0  235250.59732 584662.298153 0  235588.093896 583337.379493 0  236329.432041 582199.858992 0  237188.096234 581462.3349939999 0  237463.088521 580212.335511 0  238350.592558 579057.652616 0  238591.415797 578574.847681 0  238313.094106 577612.328905 0  239229.696732 577695.769664 0  240195.161018 577513.008613 0  240614.996733 577149.8518770001 0  240663.091715 577412.332622 0  240288.092486 578662.334085 0  239942.357258 579508.095811 0  240438.100019 580212.3334220001 0  241338.095553 580387.375355 0  241238.099828 579137.369157 0  241788.097003 577887.370889 0  241983.554649 577241.9220939999 0  242054.178239 576927.8105029999 0  242588.100699 575737.366175 0  243149.324833 574898.583978 0  243695.278626 573919.517981 0  244268.494418 573724.8454239999 0  244995.134063 573930.2767810001 0  245417.314363 573391.601898 0  243450.599125 571859.479773 0  245776.797908 572599.8353060001 0  246779.639852 572973.285167 0  248034.741935 573186.082054 0  249413.10651 573162.3205520001 0  250496.922226 573271.1521899999 0  251613.105126 573237.3551319999 0  252421.824577 572846.032906 0  253256.245022 572580.4733130001 0  253739.471933 571960.9547369999 0  254174.511864 572149.8346569999 0  254484.944333 571684.194807 0  254384.108649 570891.346712 0  254344.002752 570218.26407 0  255025.609604 570829.0294979999 0  255715.005913 570489.264586 0  256218.846343 570774.828355 0  256834.349083 570508.5908 0  257390.092515 570014.308325 0  257624.431042 568493.478911 0  259355.811717 569380.021819 0  260033.372814 569617.066669 0  262679.741751 570320.699974 0  263289.115756 569524.817815 0  263463.114338 570512.301061 0  264638.198419 570687.3443539999 0  265058.220065 571334.378467 0  265447.561421 572077.90485 0  265488.125257 573137.3446020001 0  265131.937715 573963.293593 0  265432.389648 575093.068786 0  265638.122314 576338.029955 0  265750.630817 577371.8281319999 0  265738.570663 578561.9098850001 0  265875.630866 579139.630549 0  266213.129247 579862.311842 0  266563.130472 581112.314509 0  266238.135356 582362.310259 0  265938.12863 583612.320897 0  265738.131342 584762.3210189999 0  266875.638633 585365.358768 0  264018.7239399826 593650.4646671159 0  262236.3944351029 595831.1252656333 0  241846.246678 605206.1436625 0  240200.622106 608424.8903290001 0  240943.4862974102 610939.7757535663 0  236550.6094 599787.3577085 0  238528.1212051503 608102.9081793013 0  244413.4891967989 572609.5960859474 0  236382.0474488751 598808.3067022427 0  235369.601910944 600933.5380148316 0  235413.099011 591037.3503485 0  235446.2251831186 590266.6553871984 0  240475.5921005 578037.3333535 0  240413.173949154 577324.4280286073 0  240574.037899 606283.0066440001 0  263857.9179445 593618.2891454998 0  264153.4303974913 593343.916675058 0  242042.1833925 604946.7714812499 0  241650.3099635 605465.51584375 0  244613.6985165 572229.6575395 0  236631.8579695 598822.2989335 0  235140.029068 600860.444221 0  241767.7287175 604874.0596705 0  242140.15174975 604817.0853906251 0  234781.8558075 600573.1668855001 0  242091.167571125 604881.9284359375 0  234519.3558565 600373.162719 0  254604.8337712102 583989.0014118921 0  250699.5846056537 594617.3297041012 0  250540.4796469513 602258.2940568649 0  248483.7490186612 580334.7345534252 0  258549.2190328319 577893.951823392 0  257067.0067473103 590016.5327808241 0  243285.0921999099 596333.923437875 0  248333.1386145258 589098.0389905117 0  256142.8445072741 595883.3911551933 0  260245.1368072523 583315.2785712298 0  253472.3380211276 578932.2908163272 0  246432.3347504817 599884.5019511909 0  261555.9240922556 588041.186709004 0  247293.1100123104 605823.8307887657 0  246458.2798550911 593168.8646574575 0  252840.0183145193 588226.5564648228 0  249828.2874404451 584740.7888937403 0  255409.5660975206 600458.8956828594 0  260819.9733392385 574219.403683011 0  252584.2262054711 605722.6603825617 0  254049.8830611471 592547.4852571967 0  250015.4356193061 598425.2225922942 0  245872.072249477 577604.9761853142 0  262002.1583249522 579753.4663046852 0  257732.6630933878 586227.970805314 0  250242.5556457866 577017.3316409125 0  244921.6453001869 581816.6358421432 0  256520.3890639471 580904.824006648 0  240779.0970645865 599524.6679555867 0  257100.1829219198 574459.5922545703 0  239912.2630002034 595231.1172704464 0  244703.0875078634 590068.6945953515 0  242549.5490268674 592874.3693043783 0  251586.0465921376 581796.2215047925 0  246643.189997516 596527.447801719 0  251049.7658069622 591057.6752245198 0  253014.5731561695 596998.6601086652 0  238680.2197353724 584542.2309791476 0  259715.365803504 591937.1938619445 0  254097.157218761 575731.4494927844 0  246806.6408589328 586139.0877599345 0  246136.1179750556 602959.471719323 0  253520.7033332401 602835.180253843 0  244125.4295793909 607538.9817227355 0  252546.8895354472 599881.3279113505 0  258289.0983523553 600397.640191779 0  247518.7952199645 583037.3718217331 0  263140.3959879661 582529.2228421422 0  262894.8586894067 585442.3590432997 0  256968.6320599076 593040.7691844478 0  243573.0187527719 600218.2795730785 0  258888.5766127351 595139.7745218446 0  262588.7569809347 576734.8569237856 0  259318.4257992262 580601.2540325444 0  249963.3812725965 607065.7205847671 0  257494.5307999607 583482.5893534871 0  258906.4757205145 572278.8089438241 0  237751.446593475 587300.5805003279 0  255142.4708720699 604956.7580261135 0  258485.4978753244 597756.9250383095 0  255516.7820591553 587791.39641967 0  239758.4692108706 601926.8203218657 0  255873.0092222999 577739.5085867504
[...]
<PointData  Scalars="f_24704-0"> 
<DataArray  type="Float64"  Name="f_24704-0"  format="ascii">3.3258846606531732e+07  3.3340184053310081e+07  3.3430087905649595e+07  3.3497935166813497e+07  3.3541400634863637e+07  3.3600698273959354e+07  3.3619158020362824e+07  3.3632480124485344e+07  3.3632980866399296e+07  3.3646112580489747e+07  3.3652035588641770e+07  3.3650831029495500e+07  3.3661502088241808e+07  3.3744444987106472e+07  3.3795936514294930e+07  3.3840240768230654e+07  3.3898622851823762e+07  3.3960807672233395e+07  3.3968002555355810e+07  3.3977378026910536e+07  3.4022699209891915e+07  3.4056793015663847e+07  3.4093808033526570e+07  3.4113045764741495e+07  3.4122149060631096e+07  3.4141211525848441e+07  3.4146591725064136e+07  3.4155999662945010e+07  3.4173719721929185e+07  3.4185380947963230e+07  3.4188820220670596e+07  3.4198030020376995e+07  3.4219915089703560e+07  3.4236737433434747e+07  3.4239696890653722e+07  3.4252255624429643e+07  3.4265436776249491e+07  3.4276565730152272e+07  3.4283644371618532e+07  3.4289327127851456e+07  3.4297311213000461e+07  3.4304791816263430e+07  3.4311537642387792e+07  3.4317606678725645e+07  3.4323064688578993e+07  3.4324201736113392e+07  3.4327047445038922e+07  3.4330508085614756e+07  3.4333114871032327e+07  3.4334362609734379e+07  3.4334650729382165e+07  3.4334926663979284e+07  3.4334801671225198e+07  3.4335135060501307e+07  3.4336232010247014e+07  3.4336125484003298e+07  3.4336102327693522e+07  3.4336538166600242e+07  3.4335276996734448e+07  3.4331211691538073e+07  3.4325826576645963e+07  3.4320655158707798e+07  3.4311231786558732e+07  3.4292290585525341e+07  3.4283777141530961e+07  3.4290295930711329e+07  3.4294155369968116e+07  3.4295229276178032e+07  3.4296455568997934e+07  3.4298399757021971e+07  3.4301185024523623e+07  3.4311248609690271e+07  3.4314579151765257e+07  3.4316292691771887e+07  3.4316684112843879e+07  3.4314793835017569e+07  3.4309759139233254e+07  3.4303977728117384e+07  3.4295724730937570e+07  3.4293044241063491e+07  3.4292846789551146e+07  3.4293059144611709e+07  3.4293079791015476e+07  3.4292300284067534e+07  3.4291748933891445e+07  3.4291101293342531e+07  3.4288598248781078e+07  3.4282011961937234e+07  3.4270779710748926e+07  3.4265330839671545e+07  3.4269605601214916e+07  3.4272089311364427e+07  3.4272992870255329e+07  3.4272287162902139e+07  3.4272694646570429e+07  3.4271932608718716e+07  3.4271832020259552e+07  3.4270785072618604e+07  3.4270269588215381e+07  3.4268974264324851e+07  3.4258235125449263e+07  3.4245053147776462e+07  3.4224935628989801e+07  3.4201995982788637e+07  3.4169264365065180e+07  3.4122288990015104e+07  3.4057128703892894e+07  3.3978061395548932e+07  3.3887286655945033e+07  3.3797224424550191e+07  3.3667518635412529e+07  3.3634864025375724e+07  3.3670073409687422e+07  3.3769459354086444e+07  3.3827508639595330e+07  3.3851058306448020e+07  3.3872307536708653e+07  3.3896485716057204e+07  3.3914017606813170e+07  3.3927149038354196e+07  3.3930564086479872e+07  3.3930607706414856e+07  3.3925562377872467e+07  3.3913641567707904e+07  3.3909577069156498e+07  3.3918484754213534e+07  3.3924439418043308e+07  3.3926610519191720e+07  3.3926650545747750e+07  3.3920212531607732e+07  3.3883124308276027e+07  3.3870370947877102e+07  3.3847019273624450e+07  3.3832083776542015e+07  3.3809392417709008e+07  3.3782478074376576e+07  3.3749803676750734e+07  3.3723090172400549e+07  3.3712018154486544e+07  3.3714155037754305e+07  3.3717143599677280e+07  3.3716550254567340e+07  3.3717445554040447e+07  3.3718025376787409e+07  3.3717953786732167e+07  3.3712558294051968e+07  3.3691997603716649e+07  3.3624236210193858e+07  3.3445358912437543e+07  3.3259157753008235e+07  3.3126580473407011e+07  3.3061180114038639e+07  3.3035811632945661e+07  3.2941949542842027e+07  3.2874799414211042e+07  3.2819460667978123e+07  3.2799519023817096e+07  3.2734077839747682e+07  3.2665837177320786e+07  3.2686779922851603e+07  3.2649888357562505e+07  3.2569001360658951e+07  3.2385369652445547e+07  3.2157894955418896e+07  3.1983756435991853e+07  3.1808862409067679e+07  3.1717986935074262e+07  3.1681701651694853e+07  3.1687844237002596e+07  3.1700479814547569e+07  3.1746362997239664e+07  3.1780431134482052e+07  3.1784637383850664e+07  3.1786158401075151e+07  3.1807895432547484e+07  3.1831979041315287e+07  3.1891835678418875e+07  3.1965698558883891e+07  3.2026652822381619e+07  3.2025762313791964e+07  3.2032612623621676e+07  3.2105793797551166e+07  3.2117773219478726e+07  3.2119034437637340e+07  3.2128228000012141e+07  3.2127778157754205e+07  3.2124050539492149e+07  3.2112837785592265e+07  3.2093911985945821e+07  3.2075801019091710e+07  3.2077878537926115e+07  3.2103979325331487e+07  3.2187870935507387e+07  3.2263073570042286e+07  3.2362926663149502e+07  3.2499077950086389e+07  3.2641770139724888e+07  3.2830158692238629e+07  3.3060420101932801e+07  3.3197058349372517e+07  3.3651660790460154e+07  3.3970907186276436e+07  3.4316569589725912e+07  3.4333670580030568e+07  3.4336081497494347e+07  3.4276963283233926e+07  3.4316144694627620e+07  3.2678758243384279e+07  3.4267151691127084e+07  3.4272805764989242e+07  3.3920381756620444e+07  3.3912817196438812e+07  3.3716695146182396e+07  3.3717904727457076e+07  3.4307071909411475e+07  3.3651654275855310e+07  3.3650626542776272e+07  3.4314063962742835e+07  3.4318790158803456e+07  3.2678758260510463e+07  3.4267302371646896e+07  3.4272805386715658e+07  3.4295419060702488e+07  3.4312698308266997e+07  3.4272543074740544e+07  3.4313391622434214e+07  3.4272539381759897e+07  3.2920980913294531e+07  3.4041237848669298e+07  3.4238995375561282e+07  3.2729958679893132e+07  3.1496177402376860e+07  3.3654150897432774e+07  3.4189991697820678e+07  3.3794364066358797e+07  3.4019515602103904e+07  3.2670738047105491e+07  3.1829023751447394e+07  3.4229632820928201e+07  3.3400750352771211e+07  3.4297448568972640e+07  3.4051958885666445e+07  3.3586370248481773e+07  3.3313722871452998e+07  3.4167820739939675e+07  3.1900997765402645e+07  3.4267846544893302e+07  3.3886906794299558e+07  3.4168958782011621e+07  3.2752867671456154e+07  3.2113220414832287e+07  3.3209149335330658e+07  3.2076764760786250e+07  3.3263787077205237e+07  3.2033749812611856e+07  3.4259505315621562e+07  3.1601867739219688e+07  3.4205928916776747e+07  3.3954473180021748e+07  3.4112922541915953e+07  3.2712444183900673e+07  3.4156697079896092e+07  3.3855552184776403e+07  3.4097365692581855e+07  3.3782167111496702e+07  3.3750491597400509e+07  3.1455940282736652e+07  3.3609101052102417e+07  3.4275068094327204e+07  3.4226976226880945e+07  3.4321234660737254e+07  3.4179582071850516e+07  3.4143539313224614e+07  3.3223955739331260e+07  3.2638250669729628e+07  3.3087836026246700e+07  3.3867852497926548e+07  3.4252991233542547e+07  3.3950624423032060e+07  3.1962574999824196e+07  3.1976458720018614e+07  3.4292737806781374e+07  3.2695776268893883e+07  3.1901731945156921e+07  3.3859073800440282e+07  3.4244536723482847e+07  3.4065499367987722e+07  3.3464383609008361e+07  3.4284377184699923e+07  3.1375293808360878e+07  3.3612796654564850e+07  3.3562216736115322e+07  3.3983818211332753e+07  3.3106360434601087e+07  3.2399975269104861e+07  3.3354566089570716e+07  3.3709936657539405e+07  3.2330895166561596e+07  3.2415841732105486e+07  3.3123934603867285e+07  3.3467324522864863e+07  3.4315076837235257e+07  3.4270576702574395e+07  3.3092580961245522e+07  3.4302445038005829e+07  3.4209713475619234e+07  3.4223946894354820e+07  3.4248286054510668e+07  3.3702583371505156e+07  3.3482780063614953e+07  3.4107873224558093e+07  3.4190945512801781e+07  3.3583250697771810e+07  3.4266967029122889e+07  3.3311518077001579e+07  3.4009010907214113e+07  3.2064474261819739e+07  3.2470490157863513e+07  3.4086043219213396e+07  3.4224448926196516e+07  3.3942844011156477e+07  3.4123825070614763e+07  3.3802268723495185e+07  3.4154693487215519e+07  3.1732588341246702e+07  3.2897586893193595e+07  3.2965152303773962e+07  3.4238947584606513e+07  3.4050231671663806e+07  3.2347601726138946e+07  3.4279125591617800e+07  3.3940074378627367e+07  3.4274027850742124e+07  3.2028543956143469e+07  3.4314776286249772e+07  3.4313434800076716e+07  3.2972853985781230e+07  3.3629774533636220e+07  3.4313831856411144e+07  3.4322925204928309e+07  3.4262921858764701e+07  3.4266685914632104e+07  3.3904725191730127e+07  3.1695646257103443e+07  3.4276742147195175e+07  3.4244435033343442e+07  3.3025954813631956e+07  3.3617636320151009e+07  3.3517728723998986e+07  3.4320174713517211e+07  3.4313080999586880e+07  3.3871449394686520e+07  3.4290519657391168e+07  3.4303446848785944e+07  3.4308677953304119e+07  3.4323671392498866e+07  3.3542980688842826e+07  3.2591558466911085e+07  3.3907499998666324e+07  3.1826900359192286e+07  3.3578051798901394e+07  3.2209918008170355e+07  3.3881127772311136e+07  3.4332496211110666e+07  3.3824083594488777e+07  3.3913150786355793e+07  3.4263872504063301e+07  3.3615283283868432e+07  3.1989144518696330e+07  3.3909200333740063e+07  3.1650374208468456e+07  3.2814989142189112e+07  3.4266347223958552e+07  3.4256682625795655e+07  3.3699596966276333e+07  3.4332610201742843e+07  3.2083511318061452e+07  3.4279543758625150e+07  3.4040670593915142e+07  3.2110828407191172e+07  3.1713357065884829e+07  3.1566292332708206e+07  3.4183339182525367e+07  3.4283434548538759e+07  3.4271396923082680e+07  3.4129140736708008e+07  3.4317826342535377e+07  3.3939609896187082e+07  3.2668612956586037e+07  3.2668568997129120e+07  3.1920050804264233e+07  3.4313739048927747e+07  3.4315352474568173e+07  3.4316008672595032e+07  3.4240573334568664e+07  3.4252383111672759e+07  3.4318195402582034e+07  3.4307950637195796e+07  3.3844387754567243e+07  3.4335801525265180e+07  3.4335456249690130e+07  3.3609241883935273e+07  3.2059054468219504e+07  3.3707309515896045e+07  3.4291017575219810e+07  3.3789432467692241e+07  3.3770412333109558e+07  3.4333613723167576e+07  3.3699857190402091e+07  3.4203041802665107e+07  3.2881222866025142e+07  3.3041401165431898e+07  3.2987090330844216e+07  3.3096869260770481e+07  3.4270123820586041e+07  3.3613106879161932e+07  3.3635767561837696e+07  3.3587023491732635e+07  3.3632399326649629e+07  3.3526860646675933e+07  3.2099302615657046e+07  3.2030837265975039e+07  3.3668441149978608e+07  3.2950113069597859e+07  3.3929469478067890e+07  3.3929156297602154e+07  3.4334767840530343e+07  3.4018166204083517e+07  3.3918979774054855e+07  3.3646273771003306e+07  3.3586187006784782e+07  3.3604480846474282e+07  3.3648136890731066e+07  3.3602247240504242e+07  3.3628937655752271e+07  3.3724512431031786e+07  3.3645167960139379e+07  3.3685990687515393e+07  3.3773674889309354e+07  3.3732533906429097e+07  3.3350069583439797e+07  3.3514621797125842e+07  3.2266376987296786e+07  3.2387937510123342e+07  3.2232206891507011e+07  3.2073506581898618e+07  3.2118777775789145e+07  3.1893610300199505e+07  3.2030433608200915e+07  3.1943611289691597e+07  3.1673857968701616e+07  3.1642936410209209e+07  3.2067027776777707e+07  3.2087424725672457e+07  3.2074480883462623e+07  3.2134913446398940e+07  3.2088033532294992e+07  3.2223771065096255e+07  3.2203520250731569e+07  3.2113548947479490e+07  3.2316051504454784e+07  3.2236962816014174e+07  3.2354450776454311e+07  3.2285618414999809e+07  3.2441590377093889e+07  3.2667183329279307e+07  3.2521965436694589e+07  3.3064436950319026e+07  3.2518961508776598e+07  3.2799801012138162e+07  3.3133615294553615e+07  3.4113054925009981e+07  3.4070644917229258e+07  3.4013365852976367e+07  3.4064029431036666e+07  3.4211863281468265e+07  3.4256239738552965e+07  3.4231734003321387e+07  3.4253667859270260e+07  3.2991222395663675e+07  3.2546633524688613e+07  3.2574716012303803e+07  3.2804607409489274e+07  3.1788636118054524e+07  3.1609807553238966e+07  3.1475737005391683e+07  3.1671351371751904e+07  3.1380343024519514e+07  3.1603345036256727e+07  3.3707366279595546e+07  3.3771735724595264e+07  3.3565975843398012e+07  3.3681169593883514e+07  3.3563733188494883e+07  3.4197737586134478e+07  3.4155257040487520e+07  3.3824588196449436e+07  3.3707232969184399e+07  3.3898681527755164e+07  3.3696543422780693e+07  3.3873554020051256e+07  3.3796371449926607e+07  3.3958888735836625e+07  3.4060068395145394e+07  3.4013825655522794e+07  3.2337468814324781e+07  3.2647091887857765e+07  3.2904468169796795e+07  3.2339276902207211e+07  3.1900471801531170e+07  3.1870997055920552e+07  3.2295220894392718e+07  3.1518027910472851e+07  3.1549031245801453e+07  3.2099100679496743e+07  3.2085284930002525e+07  3.4201923604059376e+07  3.4254455448185936e+07  3.4227103077481955e+07  3.4255727296371631e+07  3.4287698642518334e+07  3.4109431607345074e+07  3.4001495045263350e+07  3.4089603833510555e+07  3.4050533013578162e+07  3.3524766835716292e+07  3.3650681476847790e+07  3.3582367697142504e+07  3.3459743791708380e+07  3.4199821872983985e+07  3.4173341108116366e+07  3.4155331551815294e+07  3.4139973345300913e+07  3.1748141424538072e+07  3.1909429084904756e+07  3.3869921071817860e+07  3.3877138291693419e+07  3.3805429483932674e+07  3.4162315687048525e+07  3.4135286483471647e+07  3.4198471491816513e+07  3.4131209506864220e+07  3.2925292635466192e+07  3.2588480830505490e+07  3.2607110175242621e+07  3.2799878616764572e+07  3.2662478676717922e+07  3.2793594607264724e+07  3.2375156203631300e+07  3.1988553964883439e+07  3.2028315404069789e+07  3.1853315351655249e+07  3.2243219623041131e+07  3.2176650376257643e+07  3.2980828959278490e+07  3.3341508957156293e+07  3.3349806052623969e+07  3.3250027026670359e+07  3.1693035037218530e+07  3.2167703716408975e+07  3.2240223079445560e+07  3.2286975202053025e+07  3.1796464403718185e+07  3.2061132906828169e+07  3.3233006042501178e+07  3.3428201623280086e+07  3.3175238597311161e+07  3.3087769574391793e+07  3.1955956547250692e+07  3.2381244643547576e+07  3.1618425681443293e+07  3.2204572395350799e+07  3.1462390956886951e+07  3.1768132106884517e+07  3.1392806780733638e+07  3.1625251287588771e+07  3.1648325618319076e+07  3.1727746383007418e+07  3.1558980909335978e+07  3.3948577529489398e+07  3.3884338902656332e+07  3.4006069199409313e+07  3.3986164840416849e+07  3.4117725801637329e+07  3.2559544151193824e+07  3.2515184737921741e+07  3.4123559887668960e+07  3.3923727076228820e+07  3.3784044012090258e+07  3.3734385030419268e+07  3.3899525619354948e+07  3.4142269604016855e+07  3.4102584079380162e+07  3.3743560366421632e+07  3.3746060864024021e+07  3.3811544707129121e+07  3.3627004813817322e+07  3.1378080549778536e+07  3.1545312531930808e+07  3.1496734919399146e+07  3.3593089860671140e+07  3.3711552788132064e+07  3.4252091740728185e+07  3.4271222825863965e+07  3.4205629474775292e+07  3.4250392984984674e+07  3.4209840243279338e+07  3.4202473180022128e+07  3.4145723444865599e+07  3.4126666842807576e+07  3.3051267006138153e+07  3.2486600720271479e+07  3.3796196154821493e+07  3.3870903040627770e+07  3.1857724388061665e+07  3.2064635770959117e+07  3.2018285015185174e+07  3.2317805427502453e+07  3.2925861612858616e+07  3.3597575782956600e+07  3.3461793651120249e+07  3.3389674984116543e+07  3.3553941665068299e+07  3.3545315857726902e+07  3.3589482929860659e+07  3.3579128235341847e+07  3.3638603581672467e+07  3.3962611230942793e+07  3.3961397631636724e+07  3.3002633627800032e+07  3.2786632103669196e+07  3.2385497914134905e+07  3.2665350348526686e+07  3.2425171492963765e+07  3.2249740049206208e+07  3.3307830605167005e+07  3.3369121023906045e+07  3.3202989450697832e+07  3.4247395777500451e+07  3.3454103510729566e+07  3.2674123659547340e+07  3.3877498840276390e+07  3.4000432046057120e+07  3.4089093469529621e+07  3.4033506813587293e+07  3.2273333899997618e+07  3.2030606678171322e+07  3.1623138533287190e+07  3.3578279813889444e+07  3.2111133877282590e+07  3.3658656667453706e+07  3.1843942242785357e+07  3.1583193661696807e+07  3.3654869417451993e+07  3.3095777224867415e+07  3.4089660174752571e+07  3.1630098785520855e+07  3.1506150515848499e+07  3.1456353127904657e+07  3.1427374644418284e+07  3.1522383921136342e+07  3.3836323141791172e+07  3.1851458161052845e+07  3.2061834233671553e+07  3.1955939184576929e+07  3.4241535097222500e+07  3.3734952487533316e+07  3.3555591798891649e+07  3.3525536760679990e+07  3.3522493885809623e+07  3.1773363390319988e+07  3.4142731465639539e+07  3.4150936889479905e+07  3.2208238372059874e+07  3.2240773860043854e+07  3.3137373434198935e+07  3.3226676936012555e+07  3.1878654174426254e+07  3.3157967682412069e+07  3.3840123968252696e+07  3.3890762334331147e+07  3.3798413144181170e+07  3.3911492069479689e+07  3.1547109228857860e+07  3.1436801716721568e+07  3.1497571193597127e+07  3.1471192824367441e+07  3.4163205620214209e+07  3.1811980109693423e+07  3.1952813737130973e+07  3.2132189368746139e+07  3.3516915273345169e+07  3.3494241194192071e+07  3.3533825464865766e+07  3.3461717171508618e+07  3.1445254728865385e+07  3.1343612561784998e+07  3.1366206787317418e+07  3.3463828985381547e+07  3.4213449399502985e+07  3.4225613927050091e+07  3.4238840060233921e+07  3.3698297100418381e+07  3.4127304317707136e+07  3.3384486801226363e+07  3.2515853571241420e+07  3.2422912854434501e+07  3.2571589990358941e+07  3.3972721429057486e+07  3.3798897631927580e+07  3.3841076489888117e+07  3.1720933152208384e+07  3.1668414946128208e+07  3.1667401299475566e+07  3.2841846362174127e+07  3.2993863286474954e+07  3.2968542432212904e+07  3.2783486385046404e+07  3.4026068522155814e+07  3.2153937929775950e+07  3.2130989596965618e+07  3.2154766070168171e+07  3.3651876814870730e+07  3.3625693926335074e+07  3.3636927865561053e+07  3.1940502510762531e+07  3.2068492015845008e+07  3.2165722758134030e+07  3.1510743373490207e+07  3.2084519707481612e+07  3.2059451938591205e+07  3.3692493455619268e+07  3.3738846874507144e+07  3.3715855626104370e+07  3.3670957945858523e+07  3.3679777000338845e+07  3.3677690308501370e+07  3.3672551922417574e+07  3.2236665691894960e+07  3.2113149081343770e+07  3.3161294544658959e+07  3.4122235206261814e+07  3.2687620651428010e+07  3.2622137127203472e+07  3.1671144485331416e+07  3.1464315406225841e+07  3.1844275456748232e+07  3.1777944137181599e+07  3.1450874274113335e+07  3.1357469802362040e+07  3.3564243770501427e+07  3.3514992657430168e+07  3.3514957766390800e+07  3.3876797103902034e+07  3.3838242497090444e+07  3.2357406495856311e+07  3.2504019556419265e+07  3.1691854392413918e+07  3.1770680563484557e+07  3.2186501394875489e+07  3.1588411173239872e+07  3.1565071321108751e+07  3.1427730607551035e+07  3.2306978918115575e+07  3.4240278229112878e+07  3.3561920728382044e+07  3.3624018063519210e+07  3.3456221393467888e+07  3.4157008267359592e+07  3.4159993672491625e+07  3.4142652194358386e+07  3.2700828113829535e+07  3.2900222600217860e+07  3.2734295335614432e+07  3.2154390869089801e+07  3.3065663481976818e+07  3.3040024144922692e+07  3.1392123980896600e+07  3.1470119288829405e+07  3.3978428389443412e+07  3.3975636805061981e+07  3.4003203268076681e+07  3.1514204370809551e+07  3.2089389959259696e+07  </DataArray> 
</PointData> 
</Piece>
</UnstructuredGrid>
</VTKFile>