<?xml version="1.0"?>
<VTKFile type="UnstructuredGrid"  version="0.1"  >
<UnstructuredGrid>
<Piece  NumberOfPoints="784" NumberOfCells="1320">
<Points>
<DataArray  type="Float64"  NumberOfComponents="3"  format="ascii">266913.131276 586512.314988 0  266738.13716 587762.325998 0  266363.132677 589012.328643 0  266175.641078 590169.601714 0  265666.575631 591040.7699119999 0  264875.64001 591687.766419 0  264900.636161 591845.049083 0  266088.14152 592012.3229499999 0  265561.959259 592661.17101 0  264288.136855 593037.368683 0  263865.194033 593999.8486949999 0  263850.641856 593236.729596 0  263625.634872 592756.525286 0  262689.574249 593299.848918 0  262475.636737 594003.0907310001 0  261934.554452 594340.929792 0  261725.631329 594932.094409 0  261729.256443 595728.498809 0  262138.136044 595012.330523 0  262288.141035 596262.333669 0  261488.994028 597511.480605 0  261234.15567 598316.338928 0  260815.635063 599014.863821 0  261400.643658 599389.7367680001 0  261322.963374 600022.185065 0  261119.455248 600931.061306 0  261607.436504 601293.0629359999 0  260807.446929 602089.899812 0  260025.642878 602988.868697 0  259613.135827 603937.3854499999 0  259050.643123 604100.987861 0  258411.880065 603988.6335979999 0  257764.357469 604449.872569 0  257971.239668 605320.429125 0  258041.396867 605740.635381 0  257188.143339 606987.394312 0  256038.141198 608112.3554550001 0  254788.141633 609087.4026939999 0  253588.140656 609812.362881 0  252338.135706 609737.4048949999 0  251088.138116 609787.404055 0  249963.12851 610287.399466 0  248613.130524 610462.365857 0  247363.132198 610687.407659 0  246113.130532 610837.411551 0  245832.347438 610918.209918 0  245016.946433 610958.5639439999 0  244313.129646 610762.372259 0  244400.622144 611378.093316 0  243939.669208 612460.8930899999 0  242960.649733 611984.892792 0  242170.381438 611919.647351 0  241888.122919 611112.375656 0  241393.380757 610467.6456149999 0  240594.157528 611306.369822 0  240525.621947 610804.648112 0  240363.123632 610512.3745050001 0  239113.123247 610262.374278 0  239813.12126 609037.412459 0  240588.122952 607812.368199 0  241013.119545 606625.9534560001 0  241454.373249 605724.888025 0  242238.120107 604687.3993 0  243088.121248 603462.362766 0  242860.319451 603007.3932640001 0  241563.116617 603812.361344 0  241778.400913 604327.642217 0  242059.837234 604824.879102 0  241475.620201 604923.2402390001 0  241462.182234 605449.881372 0  240906.219606 605674.888222 0  240241.856192 606891.125066 0  239891.734044 607841.012479 0  239048.653431 608724.889805 0  238118.054545 608974.895967 0  238888.111029 607337.406468 0  239738.119992 606212.362729 0  240288.12044 605687.4075229999 0  240380.212307 604729.521696 0  239347.309632 604603.204501 0  238888.112036 604387.408787 0  237913.11173 604687.401386 0  236784.172023 604499.882783 0  236883.408793 603717.08334 0  236154.933927 603595.565605 0  235688.103943 602912.369264 0  235763.108033 601662.366516 0  236363.110805 600412.35884 0  236738.107995 599162.356577 0  236525.607944 598482.2412899999 0  236138.109208 599362.357613 0  235725.063048 600325.4466510001 0  235091.948926 601408.5220979999 0  235188.10921 600312.366344 0  234375.602405 600833.9674270001 0  234663.109308 599912.358011 0  234138.105122 600062.365644 0  233955.307245 599029.561063 0  233338.103791 598387.401556 0  233988.09795 597862.356384 0  235138.101489 596637.3947750001 0  235563.1039 595387.392428 0  236513.103639 594212.356312 0  237163.10684 592987.3929869999 0  238313.103031 591862.3515540001 0  239513.107028 590812.3512640001 0  240638.102135 589787.387271 0  241463.109549 588587.378486 0  242294.489816 587443.735215 0  242913.101099 586512.341804 0  243544.066915 585474.859604 0  243040.448415 585184.975583 0  242438.10214 585337.38015 0  241313.102353 586562.339499 0  240538.107104 587787.382449 0  240114.641085 588588.939407 0  239388.100256 589437.382238 0  238188.104456 590512.346358 0  236938.100507 591362.349798 0  235813.10453 592537.396388 0  234864.502938 593178.7753880001 0  234463.097651 592862.357267 0  235113.0965 591662.3545979999 0  235713.101522 590412.346099 0  235777.688431 589976.7582779999 0  234943.583145 590706.265132 0  234462.482256 591490.2841159999 0  233801.497784 592112.940187 0  233388.099101 591787.394208 0  234013.093099 590437.393065 0  234776.217248 587148.7548100001 0  235163.093726 586562.3486189999 0  235313.098918 585483.229012 0  235250.59732 584662.298153 0  235588.093896 583337.379493 0  236329.432041 582199.858992 0  237188.096234 581462.3349939999 0  237463.088521 580212.335511 0  238350.592558 579057.652616 0  238591.415797 578574.847681 0  238313.094106 577612.328905 0  239229.696732 577695.769664 0  240195.161018 577513.008613 0  240614.996733 577149.8518770001 0  240663.091715 577412.332622 0  240288.092486 578662.334085 0  239942.357258 579508.095811 0  240438.100019 580212.3334220001 0  241338.095553 580387.375355 0  241238.099828 579137.369157 0  241788.097003 577887.370889 0  241983.554649 577241.9220939999 0  242054.178239 576927.8105029999 0  242588.100699 575737.366175 0  243149.324833 574898.583978 0  243695.278626 573919.517981 0  244268.494418 573724.8454239999 0  244995.134063 573930.2767810001 0  245417.314363 573391.601898 0  243450.599125 571859.479773 0  245776.797908 572599.8353060001 0  246779.639852 572973.285167 0  248034.741935 573186.082054 0  249413.10651 573162.3205520001 0  250496.922226 573271.1521899999 0  251613.105126 573237.3551319999 0  252421.824577 572846.032906 0  253256.245022 572580.4733130001 0  253739.471933 571960.9547369999 0  254174.511864 572149.8346569999 0  254484.944333 571684.194807 0  254384.108649 570891.346712 0  254344.002752 570218.26407 0  255025.609604 570829.0294979999 0  255715.005913 570489.264586 0  256218.846343 570774.828355 0  256834.349083 570508.5908 0  257390.092515 570014.308325 0  257624.431042 568493.478911 0  259355.811717 569380.021819 0  260033.372814 569617.066669 0  262679.741751 570320.699974 0  263289.115756 569524.817815 0  263463.114338 570512.301061 0  264638.198419 570687.3443539999 0  265058.220065 571334.378467 0  265447.561421 572077.90485 0  265488.125257 573137.3446020001 0  265131.937715 573963.293593 0  265432.389648 575093.068786 0  265638.122314 576338.029955 0  265750.630817 577371.8281319999 0  265738.570663 578561.9098850001 0  265875.630866 579139.630549 0  266213.129247 579862.311842 0  266563.130472 581112.314509 0  266238.135356 582362.310259 0  265938.12863 583612.320897 0  265738.131342 584762.3210189999 0  266875.638633 585365.358768 0  264018.7239399826 593650.4646671159 0  262236.3944351029 595831.1252656333 0  241846.246678 605206.1436625 0  240200.622106 608424.8903290001 0  240943.4862974102 610939.7757535663 0  236550.6094 599787.3577085 0  238528.1212051503 608102.9081793013 0  244413.4891967989 572609.5960859474 0  236382.0474488751 598808.3067022427 0  235369.601910944 600933.5380148316 0  235413.099011 591037.3503485 0  235446.2251831186 590266.6553871984 0  240475.5921005 578037.3333535 0  240413.173949154 577324.4280286073 0  240574.037899 606283.0066440001 0  263857.9179445 593618.2891454998 0  264153.4303974913 593343.916675058 0  242042.1833925 604946.7714812499 0  241650.3099635 605465.51584375 0  244613.6985165 572229.6575395 0  236631.8579695 598822.2989335 0  235140.029068 600860.444221 0  241767.7287175 604874.0596705 0  242140.15174975 604817.0853906251 0  234781.8558075 600573.1668855001 0  242091.167571125 604881.9284359375 0  234519.3558565 600373.162719 0  254604.8337712102 583989.0014118921 0  250699.5846056537 594617.3297041012 0  250540.4796469513 602258.2940568649 0  248483.7490186612 580334.7345534252 0  258549.2190328319 577893.951823392 0  257067.0067473103 590016.5327808241 0  243285.0921999099 596333.923437875 0  248333.1386145258 589098.0389905117 0  256142.8445072741 595883.3911551933 0  260245.1368072523 583315.2785712298 0  253472.3380211276 578932.2908163272 0  246432.3347504817 599884.5019511909 0  261555.9240922556 588041.186709004 0  247293.1100123104 605823.8307887657 0  246458.2798550911 593168.8646574575 0  252840.0183145193 588226.5564648228 0  249828.2874404451 584740.7888937403 0  255409.5660975206 600458.8956828594 0  260819.9733392385 574219.403683011 0  252584.2262054711 605722.6603825617 0  254049.8830611471 592547.4852571967 0  250015.4356193061 598425.2225922942 0  245872.072249477 577604.9761853142 0  262002.1583249522 579753.4663046852 0  257732.6630933878 586227.970805314 0  250242.5556457866 577017.3316409125 0  244921.6453001869 581816.6358421432 0  256520.3890639471 580904.824006648 0  240779.0970645865 599524.6679555867 0  257100.1829219198 574459.5922545703 0  239912.2630002034 595231.1172704464 0  244703.0875078634 590068.6945953515 0  242549.5490268674 592874.3693043783 0  251586.0465921376 581796.2215047925 0  246643.189997516 596527.447801719 0  251049.7658069622 591057.6752245198 0  253014.5731561695 596998.6601086652 0  238680.2197353724 584542.2309791476 0  259715.365803504 591937.1938619445 0  254097.157218761 575731.4494927844 0  246806.6408589328 586139.0877599345 0  246136.1179750556 602959.471719323 0  253520.7033332401 602835.180253843 0  244125.4295793909 607538.9817227355 0  252546.8895354472 599881.3279113505 0  258289.0983523553 600397.640191779 0  247518.7952199645 583037.3718217331 0  263140.3959879661 582529.2228421422 0  262894.8586894067 585442.3590432997 0  256968.6320599076 593040.7691844478 0  243573.0187527719 600218.2795730785 0  258888.5766127351 595139.7745218446 0  262588.7569809347 576734.8569237856 0  259318.4257992262 580601.2540325444 0  249963.3812725965 607065.7205847671 0  257494.5307999607 583482.5893534871 0  258906.4757205145 572278.8089438241 0  237751.446593475 587300.5805003279 0  255142.4708720699 604956.7580261135 0  258485.4978753244 597756.9250383095 0  255516.7820591553 587791.39641967 0  239758.4692108706 601926.8203218657 0  255873.0092222999 577739.5085867504
[...]
<PointData  Scalars="f_49376-0"> 
<DataArray  type="Float64"  Name="f_49376-0"  format="ascii">1.6765948931419881e+07  1.6816285615097485e+07  1.6870029162245695e+07  1.6910947129089508e+07  1.6935884006721139e+07  1.6971200263346896e+07  1.6985340741386220e+07  1.7000349860590734e+07  1.6999285593248840e+07  1.7000290396599934e+07  1.7005313734388523e+07  1.7002726235626437e+07  1.7001464964924343e+07  1.7045773625203621e+07  1.7088460252635807e+07  1.7132958067099445e+07  1.7203355367138661e+07  1.7294236318063799e+07  1.7308428179588512e+07  1.7320770653839342e+07  1.7390312443190973e+07  1.7448320276822180e+07  1.7519269466467232e+07  1.7561753994203877e+07  1.7581887704522382e+07  1.7626040204947345e+07  1.7639480677022070e+07  1.7660407441318020e+07  1.7704216043335315e+07  1.7735938301010549e+07  1.7745290770189647e+07  1.7772169941838000e+07  1.7848528520742316e+07  1.7916996736290339e+07  1.7929793842842199e+07  1.7983910816293720e+07  1.8042409617499728e+07  1.8093124468167745e+07  1.8125172012460522e+07  1.8151300167988688e+07  1.8190182492718343e+07  1.8228962718143634e+07  1.8266127830825604e+07  1.8301449391656257e+07  1.8334528809797857e+07  1.8341583334029805e+07  1.8359534153592445e+07  1.8381665150993314e+07  1.8397992239313509e+07  1.8405183871916387e+07  1.8406689010147594e+07  1.8408111197414327e+07  1.8407745813397542e+07  1.8410255398614623e+07  1.8416279185270496e+07  1.8415801669188131e+07  1.8415812062403172e+07  1.8418016839130927e+07  1.8411415148685925e+07  1.8386953951036215e+07  1.8353969891815055e+07  1.8322808387815326e+07  1.8266572601645019e+07  1.8166285089733772e+07  1.8143655984388642e+07  1.8222232756877676e+07  1.8248757269438963e+07  1.8255876679401092e+07  1.8263153495572135e+07  1.8274647582211334e+07  1.8290758728585746e+07  1.8349079081892595e+07  1.8367845701984461e+07  1.8376599570942029e+07  1.8378354566151060e+07  1.8368888916525245e+07  1.8340488817415882e+07  1.8306960525324378e+07  1.8260414660966463e+07  1.8250180558143124e+07  1.8252101692439638e+07  1.8257093605737906e+07  1.8258624105407733e+07  1.8256382221814550e+07  1.8255265331391424e+07  1.8253119797631510e+07  1.8243546472830728e+07  1.8217747995692488e+07  1.8177523249162432e+07  1.8165830123846866e+07  1.8191172782478981e+07  1.8202930020786386e+07  1.8206755736552183e+07  1.8203648997662671e+07  1.8205055512505189e+07  1.8201812790202532e+07  1.8201182887342539e+07  1.8196649949423239e+07  1.8194445568525419e+07  1.8189012595583882e+07  1.8143883206151012e+07  1.8092093271097027e+07  1.8015792992398441e+07  1.7930821253826693e+07  1.7812285746103454e+07  1.7648729515979417e+07  1.7449625022526298e+07  1.7250811696948130e+07  1.7088586186124880e+07  1.6984375454897609e+07  1.6919029200141817e+07  1.6964987814856891e+07  1.7052456297832843e+07  1.7227446821210440e+07  1.7332506987018514e+07  1.7375857372522004e+07  1.7415497855351940e+07  1.7461113654909302e+07  1.7493602803838700e+07  1.7516261133101065e+07  1.7521267142765898e+07  1.7521315918880221e+07  1.7513606236890689e+07  1.7493035112660307e+07  1.7485972630916975e+07  1.7501839609774981e+07  1.7511747486867480e+07  1.7514880723009568e+07  1.7514882250350386e+07  1.7504674606946215e+07  1.7439621150861580e+07  1.7417883802450456e+07  1.7379635345922582e+07  1.7356441934249923e+07  1.7323309828964964e+07  1.7286958973292794e+07  1.7246279832036201e+07  1.7217033300991654e+07  1.7208418550625466e+07  1.7212815348087579e+07  1.7217507926117770e+07  1.7217069987555116e+07  1.7218991064297963e+07  1.7219964992915474e+07  1.7219845258709047e+07  1.7212134836964197e+07  1.7185945014355175e+07  1.7110476520303920e+07  1.6944459091268886e+07  1.6810449042170435e+07  1.6732094205079425e+07  1.6698128180448724e+07  1.6685653676207183e+07  1.6642630975839056e+07  1.6614457504477294e+07  1.6592860921227146e+07  1.6585250771349696e+07  1.6560797572021302e+07  1.6537009909344429e+07  1.6545960050641920e+07  1.6531904844749071e+07  1.6503254004035426e+07  1.6441087810883855e+07  1.6368516571100289e+07  1.6316686083008723e+07  1.6268094607378710e+07  1.6245002575198887e+07  1.6238199119471062e+07  1.6243572872342547e+07  1.6248960476344222e+07  1.6268340388894262e+07  1.6282781114810497e+07  1.6284714291395837e+07  1.6284566352039190e+07  1.6292245180972075e+07  1.6300532014612570e+07  1.6323127700422470e+07  1.6353770567328291e+07  1.6378068153437350e+07  1.6371542077869831e+07  1.6370644341332423e+07  1.6378247354631040e+07  1.6382628986380892e+07  1.6378739858867582e+07  1.6374750427239669e+07  1.6369408040941359e+07  1.6359181001354847e+07  1.6339399724938361e+07  1.6304964802971607e+07  1.6248105890573699e+07  1.6195291490565708e+07  1.6163890337401319e+07  1.6161884122184163e+07  1.6185064706751348e+07  1.6228862131220747e+07  1.6299355803184787e+07  1.6378221069770601e+07  1.6489468221468972e+07  1.6633032578880155e+07  1.6725960376849243e+07  1.7004688664994091e+07  1.7311449100366786e+07  1.8298287215284064e+07  1.8401959280205995e+07  1.8415528869222827e+07  1.8198697993497133e+07  1.8375858741781827e+07  1.6542830879353469e+07  1.8178132426935013e+07  1.8205995174567234e+07  1.7504799856943961e+07  1.7491870855914894e+07  1.7217899738431484e+07  1.7219761884622302e+07  1.8324943449399404e+07  1.7004691252184246e+07  1.7003153753493242e+07  1.8283322731805488e+07  1.8311607113598738e+07  1.6542832130104808e+07  1.8167507793666899e+07  1.8205997165307321e+07  1.8256990836055432e+07  1.8275217601754695e+07  1.8204476138785545e+07  1.8279326685567643e+07  1.8204457703990579e+07  1.6248404124477366e+07  1.7092223900877520e+07  1.7783348099477064e+07  1.6434925987566311e+07  1.5980776122185512e+07  1.6516253032433670e+07  1.7768087472299993e+07  1.6721188211064294e+07  1.7205831234359257e+07  1.6302678767539263e+07  1.6136171841122264e+07  1.7735885805391714e+07  1.6701881504385687e+07  1.8164952323995799e+07  1.7198996485010695e+07  1.6367164810710939e+07  1.6551890601498306e+07  1.7523058194370326e+07  1.6245430007960280e+07  1.8024918134545464e+07  1.6829072698689204e+07  1.7399733555261828e+07  1.6534290266045496e+07  1.6102870037771424e+07  1.6278323128287965e+07  1.6301112066228559e+07  1.6709979648230743e+07  1.6119519066621695e+07  1.8090313546793010e+07  1.6172229138801198e+07  1.7918778328181293e+07  1.7038578213006958e+07  1.7542929213625602e+07  1.6377017043690512e+07  1.7507494415329412e+07  1.6695618224351859e+07  1.7244623298816472e+07  1.7270687676700182e+07  1.6913045261079784e+07  1.6114244961661132e+07  1.6740425817157228e+07  1.8006796849973414e+07  1.7788859450259026e+07  1.8323515005765073e+07  1.7495113962957513e+07  1.7584166791280206e+07  1.6609544598739047e+07  1.6339025885287600e+07  1.6588899605641508e+07  1.6914590308619756e+07  1.7982194061123263e+07  1.7203285318601426e+07  1.6151354788837591e+07  1.6082216253401969e+07  1.8152932088686455e+07  1.6222694730594791e+07  1.6306434127757685e+07  1.7394512089131325e+07  1.7930506270825587e+07  1.7405878223356441e+07  1.6232604794393050e+07  1.8203668900374182e+07  1.5987846557642428e+07  1.6899704203980248e+07  1.6982392851309638e+07  1.6978971743671723e+07  1.6693676332295353e+07  1.6235616617940631e+07  1.6790157594843835e+07  1.6493778213331267e+07  1.6320950393022731e+07  1.6432474584146943e+07  1.6478722985171540e+07  1.6519713939639302e+07  1.8284545158959862e+07  1.8004223541236598e+07  1.6390349593957994e+07  1.8202456703033328e+07  1.7763819907723866e+07  1.7634969831571493e+07  1.8080619131191902e+07  1.7178390166134853e+07  1.6778063059261881e+07  1.7322958528732896e+07  1.7707439468097236e+07  1.6548434117172265e+07  1.7939512166933808e+07  1.6243096282683419e+07  1.7068615710801840e+07  1.6337931537905680e+07  1.6401677748027224e+07  1.7240963673275016e+07  1.7954533849873714e+07  1.6918489926434416e+07  1.7501582882310506e+07  1.6884226002670117e+07  1.7743319992432527e+07  1.6092413295501824e+07  1.6527779772179263e+07  1.6488446954268320e+07  1.8063073896631163e+07  1.7254099641612004e+07  1.6203663544276567e+07  1.8100052909501582e+07  1.6891190068786711e+07  1.8175401894404665e+07  1.6261860428078637e+07  1.8285325169449542e+07  1.8278849222431481e+07  1.6648221362398475e+07  1.6982264741107143e+07  1.8281785192638874e+07  1.8334025355956238e+07  1.8143768774021480e+07  1.8178564074637935e+07  1.7477302004210263e+07  1.6240657160216162e+07  1.8059874668034505e+07  1.7947126229899589e+07  1.6679034983147049e+07  1.6979901991690233e+07  1.6895889343297932e+07  1.8319772538567260e+07  1.8277439168342918e+07  1.7128879717790648e+07  1.8235334878383756e+07  1.8222400030572653e+07  1.8251117184468158e+07  1.8338518166946467e+07  1.6873372034583997e+07  1.6506174338296345e+07  1.7481945158426471e+07  1.6291351021970870e+07  1.6943375110935904e+07  1.6156499970383450e+07  1.7435633398113906e+07  1.8394905822379213e+07  1.7341943445628613e+07  1.7492243345849942e+07  1.8153225594744910e+07  1.6996090412074301e+07  1.6352644083893189e+07  1.7485394364447515e+07  1.6210538262350470e+07  1.6590258848489026e+07  1.8175616885630049e+07  1.8134918007465415e+07  1.7189095473354124e+07  1.8395240699116480e+07  1.6333480213099670e+07  1.8204790349841464e+07  1.7403927978156898e+07  1.6354198469160609e+07  1.6253290201221569e+07  1.6186882008106969e+07  1.7726550792061832e+07  1.8115715661539130e+07  1.8079450912717201e+07  1.7585445145975955e+07  1.8305742317380607e+07  1.7243200379411172e+07  1.6538840644899104e+07  1.6538876020665707e+07  1.6330177084269742e+07  1.8281378267332513e+07  1.8291005176756617e+07  1.8294884270441011e+07  1.7932638906112727e+07  1.8108465904255692e+07  1.8305024018231604e+07  1.8243359661746513e+07  1.7365003145469118e+07  1.8414112380775135e+07  1.8412409795889437e+07  1.7077993101218473e+07  1.6164265665306643e+07  1.7203849650422607e+07  1.8135936827772446e+07  1.7072583763471771e+07  1.7266728538555358e+07  1.8400912381454762e+07  1.7140565465400439e+07  1.7776692566856585e+07  1.6503824967165144e+07  1.6687945473814091e+07  1.6662703497689590e+07  1.6714925772687687e+07  1.8193778050112829e+07  1.6978987450102460e+07  1.6997829484454237e+07  1.6957986187619224e+07  1.6993449515366040e+07  1.6921904014146883e+07  1.6367510556935221e+07  1.6350030391783772e+07  1.6979070615038536e+07  1.6644937629810341e+07  1.7519740995193787e+07  1.7519257772586092e+07  1.8408402940590728e+07  1.7297497715246309e+07  1.7086324968241647e+07  1.6836258751206730e+07  1.6858728939130370e+07  1.6904958345010806e+07  1.7007103032505110e+07  1.6920736309888519e+07  1.6988269138557218e+07  1.7148640951295592e+07  1.7018348804164708e+07  1.7096960504948810e+07  1.7241698535865311e+07  1.7168668316953596e+07  1.6831857079084780e+07  1.6977101517878320e+07  1.6402401710010786e+07  1.6436728380346987e+07  1.6388219576299418e+07  1.6342958651153386e+07  1.6353086812328519e+07  1.6291200859717473e+07  1.6326371582503982e+07  1.6301447807073468e+07  1.6229348501186302e+07  1.6222571759058531e+07  1.6207990248570694e+07  1.6177258369891338e+07  1.6182577541003332e+07  1.6156244049529891e+07  1.6165446416994402e+07  1.6171390136587607e+07  1.6161641585902596e+07  1.6152533253852816e+07  1.6207020908149146e+07  1.6172163044986837e+07  1.6219461432353813e+07  1.6191394925144315e+07  1.6263755102202216e+07  1.6382278497213420e+07  1.6305041022552684e+07  1.6196972497564953e+07  1.6210580063479932e+07  1.6212468227506977e+07  1.6245141386729810e+07  1.7229976318213765e+07  1.7159587971568830e+07  1.7038497994403869e+07  1.7153251092718028e+07  1.7643134901144557e+07  1.7902461925247435e+07  1.7704684774693832e+07  1.7857217456157234e+07  1.6515228861693213e+07  1.6384785548554296e+07  1.6405934707904853e+07  1.6467191489792038e+07  1.6031437296610624e+07  1.6004667812999999e+07  1.6054507782411098e+07  1.6006483814989557e+07  1.5966512153477775e+07  1.6026157451043120e+07  1.6726766449801676e+07  1.6711816433842599e+07  1.6347830214693345e+07  1.6478532260279229e+07  1.6497297130910296e+07  1.7849320966033485e+07  1.7662608004787367e+07  1.6685209943865500e+07  1.6716052312757706e+07  1.6812928924884044e+07  1.6635985798705565e+07  1.6807830204226531e+07  1.6777207436623964e+07  1.7028773674401239e+07  1.7218615141700201e+07  1.7129309751069702e+07  1.6178222169022344e+07  1.6320013516415466e+07  1.6442940437028749e+07  1.6185292105870008e+07  1.6211585714837966e+07  1.6106303673738495e+07  1.6263198590041185e+07  1.6082902445620937e+07  1.6045713258645052e+07  1.6184895658139624e+07  1.6232244656593965e+07  1.7548537043309502e+07  1.7865283133492112e+07  1.7665192336170029e+07  1.7909618194308795e+07  1.8092792204414662e+07  1.7374785143726926e+07  1.7049570992222488e+07  1.7348729659354370e+07  1.7215914469800092e+07  1.6272860672697425e+07  1.6404451615201930e+07  1.6450388447678071e+07  1.6281072348709594e+07  1.7653109281173598e+07  1.7491872479916587e+07  1.7555007455781508e+07  1.7408325499872822e+07  1.6204374972104447e+07  1.6193450588000851e+07  1.6753535793774776e+07  1.6853802910197865e+07  1.6663005030624881e+07  1.7425065469870266e+07  1.7302748780426301e+07  1.7519930966364790e+07  1.7301682432282675e+07  1.6602664065435965e+07  1.6481696126887169e+07  1.6462060791746806e+07  1.6523541976391440e+07  1.6520050146280453e+07  1.6573783794959804e+07  1.6195235430952284e+07  1.6099450929516556e+07  1.6081159822358379e+07  1.6064397422004659e+07  1.6148813854498262e+07  1.6132087698555283e+07  1.6248238899167601e+07  1.6226077829341993e+07  1.6381115041738382e+07  1.6186395556437870e+07  1.6188527190314304e+07  1.6300523254752805e+07  1.6363881577092698e+07  1.6355381921375658e+07  1.6236580920434600e+07  1.6313872805899056e+07  1.6646480356133474e+07  1.6850635219634723e+07  1.6697704555347847e+07  1.6610904008504633e+07  1.6089356972235966e+07  1.6180082688479178e+07  1.6024619556083260e+07  1.6171169502427746e+07  1.6121164265772186e+07  1.6246671471955692e+07  1.6050319847375030e+07  1.6122524656956252e+07  1.6210348320832977e+07  1.6241608744251227e+07  1.6173546936528362e+07  1.6959727570296582e+07  1.6947461188618574e+07  1.7136239268605825e+07  1.7170112092354409e+07  1.7518345284623254e+07  1.6304828459027836e+07  1.6349027782740012e+07  1.7371874706404530e+07  1.6828869889553227e+07  1.6600641379391139e+07  1.6574336893365422e+07  1.6788933215940945e+07  1.7352851965818275e+07  1.7281471691237666e+07  1.7221146191417199e+07  1.7211690386233307e+07  1.6903930845246378e+07  1.6714887963673353e+07  1.6040276219458831e+07  1.6164123174409593e+07  1.6148518355050500e+07  1.6655798985992251e+07  1.6800075939263824e+07  1.7815087440104350e+07  1.7965210187195763e+07  1.7644409873617634e+07  1.7899193287016831e+07  1.7740157736810476e+07  1.7566460820491131e+07  1.7379817403875727e+07  1.7453918758154538e+07  1.6552389173173390e+07  1.6263947031324007e+07  1.6684190329085615e+07  1.7036714053133644e+07  1.6125161781621406e+07  1.6130425081182674e+07  1.6160109843917569e+07  1.6173998819572931e+07  1.6321013234324528e+07  1.6339538017744342e+07  1.6329209839966170e+07  1.6207134027707247e+07  1.6743417758450447e+07  1.6926200517858852e+07  1.6988840395856526e+07  1.7027162984639768e+07  1.7063054425631355e+07  1.6945049511797346e+07  1.6915181056432981e+07  1.6610942721093861e+07  1.6321607168797750e+07  1.6357483115889132e+07  1.6404127034450265e+07  1.6415224742699752e+07  1.6381376982266182e+07  1.6499811461447857e+07  1.6457744665387573e+07  1.6320015833226152e+07  1.7786073441612571e+07  1.6380956455595285e+07  1.6451411049338413e+07  1.6866182137957525e+07  1.7065634319468521e+07  1.7381561412251726e+07  1.7270954171447001e+07  1.6175523095856342e+07  1.6210525048105327e+07  1.6211596842998788e+07  1.6932082225633465e+07  1.6141116574731294e+07  1.7070878527263738e+07  1.6266001805189351e+07  1.6191239740698403e+07  1.7105312800097115e+07  1.6205411063581949e+07  1.7191336698722292e+07  1.6000333527990200e+07  1.5975486267509207e+07  1.6003685182200503e+07  1.5970406341655789e+07  1.6033240887359450e+07  1.6785092171488114e+07  1.6169888894932428e+07  1.6198962498354157e+07  1.6183639218803473e+07  1.7762429134019237e+07  1.6532796314358504e+07  1.6315459129775876e+07  1.6318681760658564e+07  1.6361264511221424e+07  1.6185888371611379e+07  1.7308763439232036e+07  1.7341539138314251e+07  1.6128396484978436e+07  1.6140535424168527e+07  1.6219235465251844e+07  1.6215062284104189e+07  1.6244095739506476e+07  1.6624376690915955e+07  1.6679333054264264e+07  1.6759107409639256e+07  1.6619528648653878e+07  1.6802702645318054e+07  1.6143433965752048e+07  1.6110031594745226e+07  1.6139286983593717e+07  1.6130313713663736e+07  1.7432721498928949e+07  1.6040187382854979e+07  1.6082874604676392e+07  1.6128214946865844e+07  1.6281481829429874e+07  1.6244556432040336e+07  1.6277796936486479e+07  1.6264969704050053e+07  1.6011236946204973e+07  1.6003413536996162e+07  1.6009893588852361e+07  1.6419006482862035e+07  1.7585212902706709e+07  1.7643961907487795e+07  1.7719466464386191e+07  1.7157988722678520e+07  1.7343440382827692e+07  1.6303686487126485e+07  1.6401186203884775e+07  1.6376893089100109e+07  1.6424911061001517e+07  1.6986589679982595e+07  1.6823809271038204e+07  1.6869008142611604e+07  1.6040347929146184e+07  1.6058112897390775e+07  1.6101927559591811e+07  1.6522766780122882e+07  1.6566320235418975e+07  1.6532390951436643e+07  1.6484944880887896e+07  1.7156156727802746e+07  1.6147646106200853e+07  1.6135098429170609e+07  1.6143433426081203e+07  1.7046103885411412e+07  1.7029676498895656e+07  1.7034008537632860e+07  1.6286424048712254e+07  1.6323087102378916e+07  1.6356757678898610e+07  1.6155444443905540e+07  1.6156078216149641e+07  1.6145647755043704e+07  1.7118235628810070e+07  1.7189093864833955e+07  1.7151131859348733e+07  1.7102317128901534e+07  1.7106515719585657e+07  1.7121615660498962e+07  1.7083075025838271e+07  1.6384403275955698e+07  1.6147011940802002e+07  1.6190033703673963e+07  1.7261191639823705e+07  1.6433563516773103e+07  1.6425851471693996e+07  1.6016874377418222e+07  1.5972202716795664e+07  1.6041856382032959e+07  1.6038933271215236e+07  1.5977853261195326e+07  1.5996456670749437e+07  1.6410352742097622e+07  1.6330100819643587e+07  1.6407992325329937e+07  1.6744120580666732e+07  1.6817344841478322e+07  1.6184106719797583e+07  1.6253199043876283e+07  1.6142093698776377e+07  1.6192180302713728e+07  1.6246397205494186e+07  1.6133403438393012e+07  1.6026989516970882e+07  1.6029249707619788e+07  1.6292232679497454e+07  1.7735401001343824e+07  1.6298139756297713e+07  1.6366899857147835e+07  1.6327027497085372e+07  1.7440603661673788e+07  1.7432027635790568e+07  1.7387482490344148e+07  1.6489724706118776e+07  1.6563410763787368e+07  1.6484666075813713e+07  1.6347082601186207e+07  1.6576114593806896e+07  1.6607861647699088e+07  1.6072571495825607e+07  1.6132290470241256e+07  1.7042448744822592e+07  1.7009387479288589e+07  1.7096347306447826e+07  1.6154269996857090e+07  1.6135749732604442e+07  </DataArray> 
</PointData> 
</Piece>
</UnstructuredGrid>
</VTKFile>