<?xml version="1.0"?>
<VTKFile type="UnstructuredGrid"  version="0.1"  >
<UnstructuredGrid>
<Piece  NumberOfPoints="784" NumberOfCells="1320">
<Points>
<DataArray  type="Float64"  NumberOfComponents="3"  format="ascii">266913.131276 586512.314988 0  266738.13716 587762.325998 0  266363.132677 589012.328643 0  266175.641078 590169.601714 0  265666.575631 591040.7699119999 0  264875.64001 591687.766419 0  264900.636161 591845.049083 0  266088.14152 592012.3229499999 0  265561.959259 592661.17101 0  264288.136855 593037.368683 0  263865.194033 593999.8486949999 0  263850.641856 593236.729596 0  263625.634872 592756.525286 0  262689.574249 593299.848918 0  262475.636737 594003.0907310001 0  261934.554452 594340.929792 0  261725.631329 594932.094409 0  261729.256443 595728.498809 0  262138.136044 595012.330523 0  262288.141035 596262.333669 0  261488.994028 597511.480605 0  261234.15567 598316.338928 0  260815.635063 599014.863821 0  261400.643658 599389.7367680001 0  261322.963374 600022.185065 0  261119.455248 600931.061306 0  261607.436504 601293.0629359999 0  260807.446929 602089.899812 0  260025.642878 602988.868697 0  259613.135827 603937.3854499999 0  259050.643123 604100.987861 0  258411.880065 603988.6335979999 0  257764.357469 604449.872569 0  257971.239668 605320.429125 0  258041.396867 605740.635381 0  257188.143339 606987.394312 0  256038.141198 608112.3554550001 0  254788.141633 609087.4026939999 0  253588.140656 609812.362881 0  252338.135706 609737.4048949999 0  251088.138116 609787.404055 0  249963.12851 610287.399466 0  248613.130524 610462.365857 0  247363.132198 610687.407659 0  246113.130532 610837.411551 0  245832.347438 610918.209918 0  245016.946433 610958.5639439999 0  244313.129646 610762.372259 0  244400.622144 611378.093316 0  243939.669208 612460.8930899999 0  242960.649733 611984.892792 0  242170.381438 611919.647351 0  241888.122919 611112.375656 0  241393.380757 610467.6456149999 0  240594.157528 611306.369822 0  240525.621947 610804.648112 0  240363.123632 610512.3745050001 0  239113.123247 610262.374278 0  239813.12126 609037.412459 0  240588.122952 607812.368199 0  241013.119545 606625.9534560001 0  241454.373249 605724.888025 0  242238.120107 604687.3993 0  243088.121248 603462.362766 0  242860.319451 603007.3932640001 0  241563.116617 603812.361344 0  241778.400913 604327.642217 0  242059.837234 604824.879102 0  241475.620201 604923.2402390001 0  241462.182234 605449.881372 0  240906.219606 605674.888222 0  240241.856192 606891.125066 0  239891.734044 607841.012479 0  239048.653431 608724.889805 0  238118.054545 608974.895967 0  238888.111029 607337.406468 0  239738.119992 606212.362729 0  240288.12044 605687.4075229999 0  240380.212307 604729.521696 0  239347.309632 604603.204501 0  238888.112036 604387.408787 0  237913.11173 604687.401386 0  236784.172023 604499.882783 0  236883.408793 603717.08334 0  236154.933927 603595.565605 0  235688.103943 602912.369264 0  235763.108033 601662.366516 0  236363.110805 600412.35884 0  236738.107995 599162.356577 0  236525.607944 598482.2412899999 0  236138.109208 599362.357613 0  235725.063048 600325.4466510001 0  235091.948926 601408.5220979999 0  235188.10921 600312.366344 0  234375.602405 600833.9674270001 0  234663.109308 599912.358011 0  234138.105122 600062.365644 0  233955.307245 599029.561063 0  233338.103791 598387.401556 0  233988.09795 597862.356384 0  235138.101489 596637.3947750001 0  235563.1039 595387.392428 0  236513.103639 594212.356312 0  237163.10684 592987.3929869999 0  238313.103031 591862.3515540001 0  239513.107028 590812.3512640001 0  240638.102135 589787.387271 0  241463.109549 588587.378486 0  242294.489816 587443.735215 0  242913.101099 586512.341804 0  243544.066915 585474.859604 0  243040.448415 585184.975583 0  242438.10214 585337.38015 0  241313.102353 586562.339499 0  240538.107104 587787.382449 0  240114.641085 588588.939407 0  239388.100256 589437.382238 0  238188.104456 590512.346358 0  236938.100507 591362.349798 0  235813.10453 592537.396388 0  234864.502938 593178.7753880001 0  234463.097651 592862.357267 0  235113.0965 591662.3545979999 0  235713.101522 590412.346099 0  235777.688431 589976.7582779999 0  234943.583145 590706.265132 0  234462.482256 591490.2841159999 0  233801.497784 592112.940187 0  233388.099101 591787.394208 0  234013.093099 590437.393065 0  234776.217248 587148.7548100001 0  235163.093726 586562.3486189999 0  235313.098918 585483.229012 0  235250.59732 584662.298153 0  235588.093896 583337.379493 0  236329.432041 582199.858992 0  237188.096234 581462.3349939999 0  237463.088521 580212.335511 0  238350.592558 579057.652616 0  238591.415797 578574.847681 0  238313.094106 577612.328905 0  239229.696732 577695.769664 0  240195.161018 577513.008613 0  240614.996733 577149.8518770001 0  240663.091715 577412.332622 0  240288.092486 578662.334085 0  239942.357258 579508.095811 0  240438.100019 580212.3334220001 0  241338.095553 580387.375355 0  241238.099828 579137.369157 0  241788.097003 577887.370889 0  241983.554649 577241.9220939999 0  242054.178239 576927.8105029999 0  242588.100699 575737.366175 0  243149.324833 574898.583978 0  243695.278626 573919.517981 0  244268.494418 573724.8454239999 0  244995.134063 573930.2767810001 0  245417.314363 573391.601898 0  243450.599125 571859.479773 0  245776.797908 572599.8353060001 0  246779.639852 572973.285167 0  248034.741935 573186.082054 0  249413.10651 573162.3205520001 0  250496.922226 573271.1521899999 0  251613.105126 573237.3551319999 0  252421.824577 572846.032906 0  253256.245022 572580.4733130001 0  253739.471933 571960.9547369999 0  254174.511864 572149.8346569999 0  254484.944333 571684.194807 0  254384.108649 570891.346712 0  254344.002752 570218.26407 0  255025.609604 570829.0294979999 0  255715.005913 570489.264586 0  256218.846343 570774.828355 0  256834.349083 570508.5908 0  257390.092515 570014.308325 0  257624.431042 568493.478911 0  259355.811717 569380.021819 0  260033.372814 569617.066669 0  262679.741751 570320.699974 0  263289.115756 569524.817815 0  263463.114338 570512.301061 0  264638.198419 570687.3443539999 0  265058.220065 571334.378467 0  265447.561421 572077.90485 0  265488.125257 573137.3446020001 0  265131.937715 573963.293593 0  265432.389648 575093.068786 0  265638.122314 576338.029955 0  265750.630817 577371.8281319999 0  265738.570663 578561.9098850001 0  265875.630866 579139.630549 0  266213.129247 579862.311842 0  266563.130472 581112.314509 0  266238.135356 582362.310259 0  265938.12863 583612.320897 0  265738.131342 584762.3210189999 0  266875.638633 585365.358768 0  264018.7239399826 593650.4646671159 0  262236.3944351029 595831.1252656333 0  241846.246678 605206.1436625 0  240200.622106 608424.8903290001 0  240943.4862974102 610939.7757535663 0  236550.6094 599787.3577085 0  238528.1212051503 608102.9081793013 0  244413.4891967989 572609.5960859474 0  236382.0474488751 598808.3067022427 0  235369.601910944 600933.5380148316 0  235413.099011 591037.3503485 0  235446.2251831186 590266.6553871984 0  240475.5921005 578037.3333535 0  240413.173949154 577324.4280286073 0  240574.037899 606283.0066440001 0  263857.9179445 593618.2891454998 0  264153.4303974913 593343.916675058 0  242042.1833925 604946.7714812499 0  241650.3099635 605465.51584375 0  244613.6985165 572229.6575395 0  236631.8579695 598822.2989335 0  235140.029068 600860.444221 0  241767.7287175 604874.0596705 0  242140.15174975 604817.0853906251 0  234781.8558075 600573.1668855001 0  242091.167571125 604881.9284359375 0  234519.3558565 600373.162719 0  254604.8337712102 583989.0014118921 0  250699.5846056537 594617.3297041012 0  250540.4796469513 602258.2940568649 0  248483.7490186612 580334.7345534252 0  258549.2190328319 577893.951823392 0  257067.0067473103 590016.5327808241 0  243285.0921999099 596333.923437875 0  248333.1386145258 589098.0389905117 0  256142.8445072741 595883.3911551933 0  260245.1368072523 583315.2785712298 0  253472.3380211276 578932.2908163272 0  246432.3347504817 599884.5019511909 0  261555.9240922556 588041.186709004 0  247293.1100123104 605823.8307887657 0  246458.2798550911 593168.8646574575 0  252840.0183145193 588226.5564648228 0  249828.2874404451 584740.7888937403 0  255409.5660975206 600458.8956828594 0  260819.9733392385 574219.403683011 0  252584.2262054711 605722.6603825617 0  254049.8830611471 592547.4852571967 0  250015.4356193061 598425.2225922942 0  245872.072249477 577604.9761853142 0  262002.1583249522 579753.4663046852 0  257732.6630933878 586227.970805314 0  250242.5556457866 577017.3316409125 0  244921.6453001869 581816.6358421432 0  256520.3890639471 580904.824006648 0  240779.0970645865 599524.6679555867 0  257100.1829219198 574459.5922545703 0  239912.2630002034 595231.1172704464 0  244703.0875078634 590068.6945953515 0  242549.5490268674 592874.3693043783 0  251586.0465921376 581796.2215047925 0  246643.189997516 596527.447801719 0  251049.7658069622 591057.6752245198 0  253014.5731561695 596998.6601086652 0  238680.2197353724 584542.2309791476 0  259715.365803504 591937.1938619445 0  254097.157218761 575731.4494927844 0  246806.6408589328 586139.0877599345 0  246136.1179750556 602959.471719323 0  253520.7033332401 602835.180253843 0  244125.4295793909 607538.9817227355 0  252546.8895354472 599881.3279113505 0  258289.0983523553 600397.640191779 0  247518.7952199645 583037.3718217331 0  263140.3959879661 582529.2228421422 0  262894.8586894067 585442.3590432997 0  256968.6320599076 593040.7691844478 0  243573.0187527719 600218.2795730785 0  258888.5766127351 595139.7745218446 0  262588.7569809347 576734.8569237856 0  259318.4257992262 580601.2540325444 0  249963.3812725965 607065.7205847671 0  257494.5307999607 583482.5893534871 0  258906.4757205145 572278.8089438241 0  237751.446593475 587300.5805003279 0  255142.4708720699 604956.7580261135 0  258485.4978753244 597756.9250383095 0  255516.7820591553 587791.39641967 0  239758.4692108706 601926.8203218657 0  255873.0092222999 577739.5085867504
[...]
<PointData  Scalars="f_32-0"> 
<DataArray  type="Float64"  Name="f_32-0"  format="ascii">5.5449659615596384e+06  5.6529892499044146e+06  5.7771190434791893e+06  5.8762754494993221e+06  5.9430859662610097e+06  6.0406905369065618e+06  6.0729055362225249e+06  6.0977022189478837e+06  6.0978753777141208e+06  6.1197832590210848e+06  6.1298310803017216e+06  6.1281546236326639e+06  6.1488400798678854e+06  6.3260406065044943e+06  6.4517294311711667e+06  6.5714786649625860e+06  6.7419116360154776e+06  6.9384079411762180e+06  6.9628950613833545e+06  6.9928098993487544e+06  7.1508676803234024e+06  7.2770873704956574e+06  7.4212204645860754e+06  7.4984596599567253e+06  7.5355392914392082e+06  7.6156388778272858e+06  7.6387401578076603e+06  7.6808369258041130e+06  7.7660616207994344e+06  7.8251471837628977e+06  7.8440043428856973e+06  7.8971486204034276e+06  8.0250883356726402e+06  8.1246351651976379e+06  8.1423897321581431e+06  8.2200411370235803e+06  8.3052573930035876e+06  8.3796607068927521e+06  8.4279285026551299e+06  8.4703098713684976e+06  8.5308210092942249e+06  8.5871262396253236e+06  8.6386569885340258e+06  8.6853795283043291e+06  8.7270396716163959e+06  8.7356588322743475e+06  8.7572840481667463e+06  8.7830866880290415e+06  8.8011556058809124e+06  8.8089900445942786e+06  8.8109645428973716e+06  8.8128075523334835e+06  8.8130289865468759e+06  8.8168836430741996e+06  8.8235890592158046e+06  8.8231293717208318e+06  8.8232826255825739e+06  8.8257909404551238e+06  8.8192870193181764e+06  8.7956953589893132e+06  8.7646630876027960e+06  8.7358172985876892e+06  8.6843313505704775e+06  8.5908093098925389e+06  8.5606625890735593e+06  8.6149223733198550e+06  8.6380418672060277e+06  8.6444771398810130e+06  8.6512119502284639e+06  8.6620643591741342e+06  8.6777916337772515e+06  8.7353422453635242e+06  8.7539245235082731e+06  8.7625907777814474e+06  8.7643262814667001e+06  8.7549581919186097e+06  8.7268413918459509e+06  8.6937184004863296e+06  8.6469855650150571e+06  8.6329819135267027e+06  8.6326699771100301e+06  8.6346184902672991e+06  8.6349726339442935e+06  8.6318416283847410e+06  8.6294958514182344e+06  8.6266572240842693e+06  8.6157025354610384e+06  8.5868187391455173e+06  8.5390909177183378e+06  8.5184436455710754e+06  8.5383365671100840e+06  8.5488631608502045e+06  8.5524111827273313e+06  8.5494857522550654e+06  8.5507312268693801e+06  8.5476299348842707e+06  8.5469373276947718e+06  8.5424492179936003e+06  8.5401934059787281e+06  8.5349443464561272e+06  8.4901751033073235e+06  8.4366425125447996e+06  8.3571506882865410e+06  8.2680725749479337e+06  8.1437995157455923e+06  7.9686727444216376e+06  7.7381922935172170e+06  7.4765244422936356e+06  7.2042116802397063e+06  6.9594320726425266e+06  6.6390006673950348e+06  6.5440802860603463e+06  6.5952179671117170e+06  6.7858181354046697e+06  6.9117964341131896e+06  6.9653410718044061e+06  7.0147596135062790e+06  7.0718605319716223e+06  7.1127903398327511e+06  7.1414170273455642e+06  7.1476807627847865e+06  7.1477411304579256e+06  7.1380700430927845e+06  7.1115946738332054e+06  7.1019020572996773e+06  7.1211377225744994e+06  7.1335053640499068e+06  7.1374027552162716e+06  7.1374024409700399e+06  7.1246517171850950e+06  7.0389417098456630e+06  7.0091791232417310e+06  6.9550858756786156e+06  6.9211636963997325e+06  6.8717522648278689e+06  6.8162595190325771e+06  6.7513853579254663e+06  6.6987427980035627e+06  6.6761375415641721e+06  6.6782759742292175e+06  6.6823618040517103e+06  6.6816123666624334e+06  6.6832872903557159e+06  6.6843019545957334e+06  6.6841759562254045e+06  6.6755941041872082e+06  6.6436176344571663e+06  6.5357687377999574e+06  6.2567666716443785e+06  5.9805812666380377e+06  5.7967501562095908e+06  5.7086280801325934e+06  5.6746864654042050e+06  5.5515412363886042e+06  5.4660615646111909e+06  5.3975879384108195e+06  5.3747098750623483e+06  5.3005494113573730e+06  5.2166917879678402e+06  5.2206163659353741e+06  5.1948302405689610e+06  5.1157691693216488e+06  4.9242702815242391e+06  4.6875685953658437e+06  4.5198677926969733e+06  4.3721017427386194e+06  4.3078622244412964e+06  4.2920781158786640e+06  4.3063909067851827e+06  4.3203637008431703e+06  4.3667209491166202e+06  4.4007313879329767e+06  4.4053832051660484e+06  4.4043661911341976e+06  4.4205091582776038e+06  4.4372425903263884e+06  4.4820206274903407e+06  4.5366417857392430e+06  4.5746898485519364e+06  4.5727512177157132e+06  4.5777847019833578e+06  4.6224683682800736e+06  4.6335057978919242e+06  4.6307527088355720e+06  4.6357287091802340e+06  4.6326313117183391e+06  4.6239005574242678e+06  4.6035931508012749e+06  4.5685665536139114e+06  4.5231493657882055e+06  4.4957279527912140e+06  4.4904217167399339e+06  4.5173810739731621e+06  4.5562927163995542e+06  4.6179885135247391e+06  4.7138987216203818e+06  4.8334317935331231e+06  5.0271695203692652e+06  5.2954637544672210e+06  5.4659384840424247e+06  6.1292858558063461e+06  6.9717846114359256e+06  8.7132952703351807e+06  8.8100983050222155e+06  8.8227956700902358e+06  8.5649468516753614e+06  8.7618576746250223e+06  5.2159431029504100e+06  8.5272905296399258e+06  8.5517006989312768e+06  7.1268688949775649e+06  7.1087986615372794e+06  6.6820800928307055e+06  6.6840884878065549e+06  8.7114739300710857e+06  6.1292725656001931e+06  6.1276893077448411e+06  8.6996127608071417e+06  8.7255114616225138e+06  5.2159502135561341e+06  8.5252404044726640e+06  8.5517027683609147e+06  8.6454922752500493e+06  8.6922153190403879e+06  8.5501933181739599e+06  8.6959647141030077e+06  8.5501746319917887e+06  4.9735462915185969e+06  7.3398398830847181e+06  8.2020013476812206e+06  5.2422348811924243e+06  3.7532480224454245e+06  5.7246991610167976e+06  8.1611193821607716e+06  6.7311553243072201e+06  7.0899790105290413e+06  4.7697388049289649e+06  4.2898186749125784e+06  8.2510946327848323e+06  5.6071880753252469e+06  8.5727091692132875e+06  7.5720224663045770e+06  5.6950146252744049e+06  5.8108691117152721e+06  7.7497058770246329e+06  4.3338237181262877e+06  8.3382253357850723e+06  6.5768833350672470e+06  7.8762780419274401e+06  5.3632184658423802e+06  4.2498922716362271e+06  5.0518300085734697e+06  4.5905086003264906e+06  5.9170461498208884e+06  4.4308778901023371e+06  8.4752382575800326e+06  4.1600423791901898e+06  8.2717633162621940e+06  7.3274430517955814e+06  7.8990731009594714e+06  5.1156883503536163e+06  7.9436905915191462e+06  6.6836893607843788e+06  7.4667030151839228e+06  6.8144754592877058e+06  6.2168212290808959e+06  4.0504950926321568e+06  6.4509694964732956e+06  8.4728486619606912e+06  8.0866726808775794e+06  8.7305243641659729e+06  7.8527410076694107e+06  7.6249752508289441e+06  5.8093394843960693e+06  4.7538059742065305e+06  5.2637835083884858e+06  6.4538597756164474e+06  8.4129228246626351e+06  6.8603795789920883e+06  4.2777472364686327e+06  4.2458544508213848e+06  8.5139514826742839e+06  4.7615621045500850e+06  4.4508739243701389e+06  6.9839176241563782e+06  8.1777066597855939e+06  7.2942953048272263e+06  5.2352240868315920e+06  8.5867958908701595e+06  3.9302202198354965e+06  6.0061540496455673e+06  6.4119271563599110e+06  7.2327124936806327e+06  5.7666552068073601e+06  4.7522093367410162e+06  5.6445916525089834e+06  5.8954894570938125e+06  4.8043081257824125e+06  4.9712707850454776e+06  5.1912020561267911e+06  5.5146424152200837e+06  8.6776794160273205e+06  8.3801362375256037e+06  5.3503253648032444e+06  8.6250775643241275e+06  8.2046924770627357e+06  8.1627481563543249e+06  8.4422447109662574e+06  6.6639741011202261e+06  6.2606372060148241e+06  7.4684148745126715e+06  7.8628746569382623e+06  6.0991629286575466e+06  8.3914751657012217e+06  5.1883525066059912e+06  7.1093183584054597e+06  4.5604253368363008e+06  5.0380087445867909e+06  7.6141429864260107e+06  8.3297266711541349e+06  7.2010684911898328e+06  7.8910770025038077e+06  6.9244993785198573e+06  8.0804638508798890e+06  3.9511140946175861e+06  5.4606732474934794e+06  5.4512839041351937e+06  8.4109683145507667e+06  7.6319996366709583e+06  4.5395387632931173e+06  8.4029345186697170e+06  6.9032989575810274e+06  8.5472934810191225e+06  4.4676016818455430e+06  8.6999008547286764e+06  8.6952430791584756e+06  5.6051793431122433e+06  6.0887306055542594e+06  8.6981370568172261e+06  8.7302822499563582e+06  8.5053083383384235e+06  8.5255469065716062e+06  7.0893874912303928e+06  4.3072432262671217e+06  8.5057071410767566e+06  8.1721422149549387e+06  5.6648945805055322e+06  6.0688802072198847e+06  5.8885685158311408e+06  8.7326219666305855e+06  8.6942241632861104e+06  6.6262416607394302e+06  8.6190789771766253e+06  8.6438865281513706e+06  8.6702115099423714e+06  8.7328605727420244e+06  6.3777086665758947e+06  5.1509146794165336e+06  7.0977488693055967e+06  4.4168700291747823e+06  5.9944910235785423e+06  4.4910874109524256e+06  7.0350736530167041e+06  8.8023273247303795e+06  6.9044218239574097e+06  7.1088407207542555e+06  8.5107371033882368e+06  6.4969877530487720e+06  4.5434704379614461e+06  7.1002543025196074e+06  4.2263601864532596e+06  5.3964532475547250e+06  8.5239887066019271e+06  8.4835056674970109e+06  6.6590034163282719e+06  8.8003687621988058e+06  4.6035448159547662e+06  8.5743581932676155e+06  7.2105063226453252e+06  4.6090089837891301e+06  4.3327619869883489e+06  4.1856138924449757e+06  7.8164025786076942e+06  8.5466107531152517e+06  8.5018430337646380e+06  7.5628304680330101e+06  8.7200090242814030e+06  6.8575803955400530e+06  5.2100739887732798e+06  5.2097211846833210e+06  4.4966600805803919e+06  8.6978316398395058e+06  8.7066324604262132e+06  8.7101401483226493e+06  8.1479005463924231e+06  8.4633317615899369e+06  8.6936018823978491e+06  8.6186876857233029e+06  6.9501972372237183e+06  8.8213548579173572e+06  8.8200517956634779e+06  6.5058731232865769e+06  4.4362451975630457e+06  6.6679358148287684e+06  8.5709317011070400e+06  6.4265205299043404e+06  6.7921918203357551e+06  8.8046876163758878e+06  6.6501689831147967e+06  7.9278669898502342e+06  5.0584966799789816e+06  5.6829453060537213e+06  5.6102871619350147e+06  5.7583709445443284e+06  8.5402546319008432e+06  6.0617386307201758e+06  6.1019858051221184e+06  6.0151247116792249e+06  6.0957591893150145e+06  5.9171695644655852e+06  4.6092186190361409e+06  4.5540790854019104e+06  6.1477266150647560e+06  5.5658295094273956e+06  7.1457766983351968e+06  7.1451716427867683e+06  8.8155823877437618e+06  7.5871812613311308e+06  7.2745727325435216e+06  6.5792237433120683e+06  6.4637189477560977e+06  6.4964044854810955e+06  6.5596746720757801e+06  6.4876741780293677e+06  6.5244473378322693e+06  6.6949082186253825e+06  6.5506801286269026e+06  6.6211759826318091e+06  6.7945457817198541e+06  6.7101055511807213e+06  6.0893378133158917e+06  6.3493114422386764e+06  4.7990732478161557e+06  4.9291551430914691e+06  4.7618958504025918e+06  4.6041869797344618e+06  4.6449187920791134e+06  4.4404396325232266e+06  4.5574607102902709e+06  4.4768705262193950e+06  4.2703261290769530e+06  4.2578857467889683e+06  4.4893515439587357e+06  4.4907245603721188e+06  4.4797121238439279e+06  4.4969927933075884e+06  4.4763998133805487e+06  4.5348794517157506e+06  4.5147013210101938e+06  4.4775714826464597e+06  4.5880364175990513e+06  4.5324519201511005e+06  4.5953375126824072e+06  4.5622358557555331e+06  4.6575621632405166e+06  4.8341487860909719e+06  4.7140191937440746e+06  4.8924523389528440e+06  4.7464336855934523e+06  4.8248754968628576e+06  5.0755510138194775e+06  7.6283076303172316e+06  7.3985099669320574e+06  7.2860799928616658e+06  7.4802674623835366e+06  8.0379723954750132e+06  8.2977385412805174e+06  8.1820800451622820e+06  8.3011105693886485e+06  5.5037548926153099e+06  5.0506488403956881e+06  5.1199733109226944e+06  5.3305351162298797e+06  3.9506643140427927e+06  4.0264412288848395e+06  3.8861555458287927e+06  3.9535998863675231e+06  3.8101238660791758e+06  3.7860755031722821e+06  5.9801305416542292e+06  6.0748100726031344e+06  5.4691473808607487e+06  5.7586510333125573e+06  5.5994681336239865e+06  8.2191600141594894e+06  8.0378882232505260e+06  6.7046893053143574e+06  6.5920386107865199e+06  6.9865213630113965e+06  6.4311672328770291e+06  6.9740056593111614e+06  6.8321469951594686e+06  6.8384554349250812e+06  7.2722109645654177e+06  7.0804940352957649e+06  4.4517705930996640e+06  4.7432288986509759e+06  5.0118040333479410e+06  4.5147447088891948e+06  4.3678166773356162e+06  4.3527174540792396e+06  4.7073727380325682e+06  4.0524078752145837e+06  4.0901206539100818e+06  4.5280885757019874e+06  4.5230280443465952e+06  8.0775168707964392e+06  8.3696368151428960e+06  8.2076705237958599e+06  8.3920320973661933e+06  8.5282491395279020e+06  7.7710916281709783e+06  7.3935093526831744e+06  7.7391961816534698e+06  7.6005307656977046e+06  5.4018028972158153e+06  5.7705779302932248e+06  5.8961797083231881e+06  5.3914440215143533e+06  7.9255081995675750e+06  7.7949824534215014e+06  7.6810341009497410e+06  7.6151214109232156e+06  4.2119495175095070e+06  4.2636632943870770e+06  6.6160675925936438e+06  6.4754243207478411e+06  6.2472203863423625e+06  7.9079587441747058e+06  7.6775209390039481e+06  8.0272830869854419e+06  7.7491856921645263e+06  5.5527753415772775e+06  5.1755720379607771e+06  5.2012106212656097e+06  5.4010740087999357e+06  5.2480161869582916e+06  5.3904676763456566e+06  4.4793370591139868e+06  4.2027472619834980e+06  4.1896004556759065e+06  4.0124562883328446e+06  4.4013020470495140e+06  4.3803971118515944e+06  4.8919948921745820e+06  5.0982397953074081e+06  5.2739899289151272e+06  4.9866679942071615e+06  4.2059540138093103e+06  4.6667983968400834e+06  4.7771458499255041e+06  4.8277713144224938e+06  4.3148966874011122e+06  4.5779572640574854e+06  5.8403608685873002e+06  6.1897867444769181e+06  5.8267402202199437e+06  5.6727874994808501e+06  4.3163228181986082e+06  4.6220798792007370e+06  4.1215444604546921e+06  4.5833584585116571e+06  4.0725137114684526e+06  4.3177088222920233e+06  3.9440273966238727e+06  4.0107047831893708e+06  4.2437802343092123e+06  4.3094509310498554e+06  4.1685277852048697e+06  7.2617630030125584e+06  7.1321684242001660e+06  7.4846379033399746e+06  7.4607806813865462e+06  7.8938170859345375e+06  4.9221980267675389e+06  4.9570046309697255e+06  7.7877712498842636e+06  6.9774925262891427e+06  6.2954073945840988e+06  6.3670046882653693e+06  6.7933100614388743e+06  7.6700974219874516e+06  7.4620008503497671e+06  6.7382492699409658e+06  6.7402970587959867e+06  6.3146763888249844e+06  5.8633166837890930e+06  3.9724721036110967e+06  4.1304423132944079e+06  4.1091436905367388e+06  6.3112210993644902e+06  6.6880994200700363e+06  8.3331687082487959e+06  8.4341223327530716e+06  7.9763517078619646e+06  8.2416122922134614e+06  7.9744083126033135e+06  8.0117382488819379e+06  7.6624103029146334e+06  7.5466496957872352e+06  5.5817043084965963e+06  4.6209361570588266e+06  6.1393941337816939e+06  6.5500973797312807e+06  4.1113057490626466e+06  4.3719869930382706e+06  4.3696258879480734e+06  4.5496730495686270e+06  4.9338046265995670e+06  5.5348491954035051e+06  5.3316902225993220e+06  5.1542942131483229e+06  5.8000534620332047e+06  6.3783843216035124e+06  6.4535093224664731e+06  6.4486317176039657e+06  6.5402870655036913e+06  7.2175215715498477e+06  7.0713265528626097e+06  5.6187795417997455e+06  5.0614222280465374e+06  4.9119341938698646e+06  5.1390770495861899e+06  4.9927188601125022e+06  4.7825612442203509e+06  5.3477952824162822e+06  5.6844126153897764e+06  5.2794242512929402e+06  8.2851195518926000e+06  5.6098906322623333e+06  5.2454234415429048e+06  7.0637337208001222e+06  7.4238558422947256e+06  7.7676171248883540e+06  7.6093802647829372e+06  4.5089594755038461e+06  4.4367188865852151e+06  4.2424595773018720e+06  6.4367572032182850e+06  4.4458612220106078e+06  6.5725267131221676e+06  4.3770394037753390e+06  4.1871445073775612e+06  6.5751006978080878e+06  4.9554850638765050e+06  7.5553115529247839e+06  3.8210268470987673e+06  3.8504328182264417e+06  3.7708248625702104e+06  3.7691458380935113e+06  3.8051503907717420e+06  6.9023937351287743e+06  4.3042241407028511e+06  4.4910599441437181e+06  4.3951227744941469e+06  8.2927276255206298e+06  6.2207208661200199e+06  5.5372220491385385e+06  5.5326443094621478e+06  5.6331488289554417e+06  4.1675003389090984e+06  7.7571052961867619e+06  7.8135671495860675e+06  4.3216571950628562e+06  4.3577373924463559e+06  4.9403555841364935e+06  4.9928523660094943e+06  4.3801009400486816e+06  5.7423637153247604e+06  6.6918770130504249e+06  6.8360783946659537e+06  6.5232985521240346e+06  6.8865888697453262e+06  4.0976963660482550e+06  4.0504087483212142e+06  4.0873643135175961e+06  4.0763733419536785e+06  7.7587779864925509e+06  4.0999663625165210e+06  4.2746522946224129e+06  4.4031836922207242e+06  5.3454988041217355e+06  5.3001334683344169e+06  5.3738377375234598e+06  5.2623682650147146e+06  4.0075685783685497e+06  3.8974276970751281e+06  3.9471868234809521e+06  5.4214345188397281e+06  8.1205718462590436e+06  8.1852547502520615e+06  8.2517124039128479e+06  6.6523749780672556e+06  7.5652394275142364e+06  5.3805698849350167e+06  5.0751129358328581e+06  4.9712801007042676e+06  5.1449950623066518e+06  7.3141113826198392e+06  6.8795912973808581e+06  6.9960401615207428e+06  3.8688841610734328e+06  3.8584741306567411e+06  3.9514129664747114e+06  5.4261225657560974e+06  5.5608922381957658e+06  5.5021278652926264e+06  5.3478040280315960e+06  7.5300788881593430e+06  4.4797451457070978e+06  4.4285118972021854e+06  4.4637198493817896e+06  6.5599714315079059e+06  6.5149730288638966e+06  6.5338031704920353e+06  4.4574743929402418e+06  4.5865515014803521e+06  4.6902190869062580e+06  4.1296681445024512e+06  4.4570833328085560e+06  4.4048242260305714e+06  6.6341572019899962e+06  6.7236833147240775e+06  6.6781963727875780e+06  6.5972966306069419e+06  6.6117139466253826e+06  6.6121520958520984e+06  6.5968536566350935e+06  4.7662414956083382e+06  4.4640738060158873e+06  4.9349079901489019e+06  7.6892990045373822e+06  5.2249562414678261e+06  5.1798796754511613e+06  3.8256592666381588e+06  3.8824039953987091e+06  4.0672673558327779e+06  4.1270356489267261e+06  3.9345483381656604e+06  3.8475435172563479e+06  5.5219306644542702e+06  5.3895958809469705e+06  5.4652324738985151e+06  6.8423315814931877e+06  6.9487987285301974e+06  4.4541093359492850e+06  4.5965361492950562e+06  4.1738645237243795e+06  4.2587006125752972e+06  4.6120406562587423e+06  4.1053421524648266e+06  4.1018335235095783e+06  3.9991809820213658e+06  4.7442595159585699e+06  8.2724481666319482e+06  5.4586514701465955e+06  5.6390504074393511e+06  5.4946127160825934e+06  7.7049674588042805e+06  7.7300271333451262e+06  7.6364124362054318e+06  5.3002661960113999e+06  5.5049872253989587e+06  5.3203630243626460e+06  4.6787818191281511e+06  5.6172055853501987e+06  5.6388776880775401e+06  3.9992410596497911e+06  4.0874648592938865e+06  7.3750058046983369e+06  7.3438428217040086e+06  7.4536938813115880e+06  4.1149937907843995e+06  4.4121917822464379e+06  </DataArray> 
</PointData> 
</Piece>
</UnstructuredGrid>
</VTKFile>