<?xml version="1.0"?>
<VTKFile type="UnstructuredGrid"  version="0.1"  >
<UnstructuredGrid>
<Piece  NumberOfPoints="784" NumberOfCells="1320">
<Points>
<DataArray  type="Float64"  NumberOfComponents="3"  format="ascii">266913.131276 586512.314988 0  266738.13716 587762.325998 0  266363.132677 589012.328643 0  266175.641078 590169.601714 0  265666.575631 591040.7699119999 0  264875.64001 591687.766419 0  264900.636161 591845.049083 0  266088.14152 592012.3229499999 0  265561.959259 592661.17101 0  264288.136855 593037.368683 0  263865.194033 593999.8486949999 0  263850.641856 593236.729596 0  263625.634872 592756.525286 0  262689.574249 593299.848918 0  262475.636737 594003.0907310001 0  261934.554452 594340.929792 0  261725.631329 594932.094409 0  261729.256443 595728.498809 0  262138.136044 595012.330523 0  262288.141035 596262.333669 0  261488.994028 597511.480605 0  261234.15567 598316.338928 0  260815.635063 599014.863821 0  261400.643658 599389.7367680001 0  261322.963374 600022.185065 0  261119.455248 600931.061306 0  261607.436504 601293.0629359999 0  260807.446929 602089.899812 0  260025.642878 602988.868697 0  259613.135827 603937.3854499999 0  259050.643123 604100.987861 0  258411.880065 603988.6335979999 0  257764.357469 604449.872569 0  257971.239668 605320.429125 0  258041.396867 605740.635381 0  257188.143339 606987.394312 0  256038.141198 608112.3554550001 0  254788.141633 609087.4026939999 0  253588.140656 609812.362881 0  252338.135706 609737.4048949999 0  251088.138116 609787.404055 0  249963.12851 610287.399466 0  248613.130524 610462.365857 0  247363.132198 610687.407659 0  246113.130532 610837.411551 0  245832.347438 610918.209918 0  245016.946433 610958.5639439999 0  244313.129646 610762.372259 0  244400.622144 611378.093316 0  243939.669208 612460.8930899999 0  242960.649733 611984.892792 0  242170.381438 611919.647351 0  241888.122919 611112.375656 0  241393.380757 610467.6456149999 0  240594.157528 611306.369822 0  240525.621947 610804.648112 0  240363.123632 610512.3745050001 0  239113.123247 610262.374278 0  239813.12126 609037.412459 0  240588.122952 607812.368199 0  241013.119545 606625.9534560001 0  241454.373249 605724.888025 0  242238.120107 604687.3993 0  243088.121248 603462.362766 0  242860.319451 603007.3932640001 0  241563.116617 603812.361344 0  241778.400913 604327.642217 0  242059.837234 604824.879102 0  241475.620201 604923.2402390001 0  241462.182234 605449.881372 0  240906.219606 605674.888222 0  240241.856192 606891.125066 0  239891.734044 607841.012479 0  239048.653431 608724.889805 0  238118.054545 608974.895967 0  238888.111029 607337.406468 0  239738.119992 606212.362729 0  240288.12044 605687.4075229999 0  240380.212307 604729.521696 0  239347.309632 604603.204501 0  238888.112036 604387.408787 0  237913.11173 604687.401386 0  236784.172023 604499.882783 0  236883.408793 603717.08334 0  236154.933927 603595.565605 0  235688.103943 602912.369264 0  235763.108033 601662.366516 0  236363.110805 600412.35884 0  236738.107995 599162.356577 0  236525.607944 598482.2412899999 0  236138.109208 599362.357613 0  235725.063048 600325.4466510001 0  235091.948926 601408.5220979999 0  235188.10921 600312.366344 0  234375.602405 600833.9674270001 0  234663.109308 599912.358011 0  234138.105122 600062.365644 0  233955.307245 599029.561063 0  233338.103791 598387.401556 0  233988.09795 597862.356384 0  235138.101489 596637.3947750001 0  235563.1039 595387.392428 0  236513.103639 594212.356312 0  237163.10684 592987.3929869999 0  238313.103031 591862.3515540001 0  239513.107028 590812.3512640001 0  240638.102135 589787.387271 0  241463.109549 588587.378486 0  242294.489816 587443.735215 0  242913.101099 586512.341804 0  243544.066915 585474.859604 0  243040.448415 585184.975583 0  242438.10214 585337.38015 0  241313.102353 586562.339499 0  240538.107104 587787.382449 0  240114.641085 588588.939407 0  239388.100256 589437.382238 0  238188.104456 590512.346358 0  236938.100507 591362.349798 0  235813.10453 592537.396388 0  234864.502938 593178.7753880001 0  234463.097651 592862.357267 0  235113.0965 591662.3545979999 0  235713.101522 590412.346099 0  235777.688431 589976.7582779999 0  234943.583145 590706.265132 0  234462.482256 591490.2841159999 0  233801.497784 592112.940187 0  233388.099101 591787.394208 0  234013.093099 590437.393065 0  234776.217248 587148.7548100001 0  235163.093726 586562.3486189999 0  235313.098918 585483.229012 0  235250.59732 584662.298153 0  235588.093896 583337.379493 0  236329.432041 582199.858992 0  237188.096234 581462.3349939999 0  237463.088521 580212.335511 0  238350.592558 579057.652616 0  238591.415797 578574.847681 0  238313.094106 577612.328905 0  239229.696732 577695.769664 0  240195.161018 577513.008613 0  240614.996733 577149.8518770001 0  240663.091715 577412.332622 0  240288.092486 578662.334085 0  239942.357258 579508.095811 0  240438.100019 580212.3334220001 0  241338.095553 580387.375355 0  241238.099828 579137.369157 0  241788.097003 577887.370889 0  241983.554649 577241.9220939999 0  242054.178239 576927.8105029999 0  242588.100699 575737.366175 0  243149.324833 574898.583978 0  243695.278626 573919.517981 0  244268.494418 573724.8454239999 0  244995.134063 573930.2767810001 0  245417.314363 573391.601898 0  243450.599125 571859.479773 0  245776.797908 572599.8353060001 0  246779.639852 572973.285167 0  248034.741935 573186.082054 0  249413.10651 573162.3205520001 0  250496.922226 573271.1521899999 0  251613.105126 573237.3551319999 0  252421.824577 572846.032906 0  253256.245022 572580.4733130001 0  253739.471933 571960.9547369999 0  254174.511864 572149.8346569999 0  254484.944333 571684.194807 0  254384.108649 570891.346712 0  254344.002752 570218.26407 0  255025.609604 570829.0294979999 0  255715.005913 570489.264586 0  256218.846343 570774.828355 0  256834.349083 570508.5908 0  257390.092515 570014.308325 0  257624.431042 568493.478911 0  259355.811717 569380.021819 0  260033.372814 569617.066669 0  262679.741751 570320.699974 0  263289.115756 569524.817815 0  263463.114338 570512.301061 0  264638.198419 570687.3443539999 0  265058.220065 571334.378467 0  265447.561421 572077.90485 0  265488.125257 573137.3446020001 0  265131.937715 573963.293593 0  265432.389648 575093.068786 0  265638.122314 576338.029955 0  265750.630817 577371.8281319999 0  265738.570663 578561.9098850001 0  265875.630866 579139.630549 0  266213.129247 579862.311842 0  266563.130472 581112.314509 0  266238.135356 582362.310259 0  265938.12863 583612.320897 0  265738.131342 584762.3210189999 0  266875.638633 585365.358768 0  264018.7239399826 593650.4646671159 0  262236.3944351029 595831.1252656333 0  241846.246678 605206.1436625 0  240200.622106 608424.8903290001 0  240943.4862974102 610939.7757535663 0  236550.6094 599787.3577085 0  238528.1212051503 608102.9081793013 0  244413.4891967989 572609.5960859474 0  236382.0474488751 598808.3067022427 0  235369.601910944 600933.5380148316 0  235413.099011 591037.3503485 0  235446.2251831186 590266.6553871984 0  240475.5921005 578037.3333535 0  240413.173949154 577324.4280286073 0  240574.037899 606283.0066440001 0  263857.9179445 593618.2891454998 0  264153.4303974913 593343.916675058 0  242042.1833925 604946.7714812499 0  241650.3099635 605465.51584375 0  244613.6985165 572229.6575395 0  236631.8579695 598822.2989335 0  235140.029068 600860.444221 0  241767.7287175 604874.0596705 0  242140.15174975 604817.0853906251 0  234781.8558075 600573.1668855001 0  242091.167571125 604881.9284359375 0  234519.3558565 600373.162719 0  254604.8337712102 583989.0014118921 0  250699.5846056537 594617.3297041012 0  250540.4796469513 602258.2940568649 0  248483.7490186612 580334.7345534252 0  258549.2190328319 577893.951823392 0  257067.0067473103 590016.5327808241 0  243285.0921999099 596333.923437875 0  248333.1386145258 589098.0389905117 0  256142.8445072741 595883.3911551933 0  260245.1368072523 583315.2785712298 0  253472.3380211276 578932.2908163272 0  246432.3347504817 599884.5019511909 0  261555.9240922556 588041.186709004 0  247293.1100123104 605823.8307887657 0  246458.2798550911 593168.8646574575 0  252840.0183145193 588226.5564648228 0  249828.2874404451 584740.7888937403 0  255409.5660975206 600458.8956828594 0  260819.9733392385 574219.403683011 0  252584.2262054711 605722.6603825617 0  254049.8830611471 592547.4852571967 0  250015.4356193061 598425.2225922942 0  245872.072249477 577604.9761853142 0  262002.1583249522 579753.4663046852 0  257732.6630933878 586227.970805314 0  250242.5556457866 577017.3316409125 0  244921.6453001869 581816.6358421432 0  256520.3890639471 580904.824006648 0  240779.0970645865 599524.6679555867 0  257100.1829219198 574459.5922545703 0  239912.2630002034 595231.1172704464 0  244703.0875078634 590068.6945953515 0  242549.5490268674 592874.3693043783 0  251586.0465921376 581796.2215047925 0  246643.189997516 596527.447801719 0  251049.7658069622 591057.6752245198 0  253014.5731561695 596998.6601086652 0  238680.2197353724 584542.2309791476 0  259715.365803504 591937.1938619445 0  254097.157218761 575731.4494927844 0  246806.6408589328 586139.0877599345 0  246136.1179750556 602959.471719323 0  253520.7033332401 602835.180253843 0  244125.4295793909 607538.9817227355 0  252546.8895354472 599881.3279113505 0  258289.0983523553 600397.640191779 0  247518.7952199645 583037.3718217331 0  263140.3959879661 582529.2228421422 0  262894.8586894067 585442.3590432997 0  256968.6320599076 593040.7691844478 0  243573.0187527719 600218.2795730785 0  258888.5766127351 595139.7745218446 0  262588.7569809347 576734.8569237856 0  259318.4257992262 580601.2540325444 0  249963.3812725965 607065.7205847671 0  257494.5307999607 583482.5893534871 0  258906.4757205145 572278.8089438241 0  237751.446593475 587300.5805003279 0  255142.4708720699 604956.7580261135 0  258485.4978753244 597756.9250383095 0  255516.7820591553 587791.39641967 0  239758.4692108706 601926.8203218657 0  255873.0092222999 577739.5085867504
[...]
<PointData  Scalars="f_32-0"> 
<DataArray  type="Float64"  Name="f_32-0"  format="ascii">3.6958531053191409e+06  3.7789616019498687e+06  3.8790512727608276e+06  3.9598601523089926e+06  4.0166850865454660e+06  4.0986337871076190e+06  4.1215245691139787e+06  4.1333150517101577e+06  4.1350310941641168e+06  4.1620332589368974e+06  4.1684905089629097e+06  4.1695158843512698e+06  4.1964196376274247e+06  4.3486383911039820e+06  4.4370949492398445e+06  4.5132967378560193e+06  4.6118814174066810e+06  4.7148870634258837e+06  4.7261658928997628e+06  4.7421162983503705e+06  4.8229597639782308e+06  4.8852059078473048e+06  4.9540102153115729e+06  4.9897138055872591e+06  5.0067838191978317e+06  5.0432555691672415e+06  5.0536355654818909e+06  5.0728210839436799e+06  5.1108994665306387e+06  5.1366909241063157e+06  5.1448443224015171e+06  5.1674539382829135e+06  5.2199538430574695e+06  5.2594406916499604e+06  5.2663653196185026e+06  5.2964604486931441e+06  5.3291918801198686e+06  5.3577194777819011e+06  5.3762409412962021e+06  5.3926049084721329e+06  5.4160111911027739e+06  5.4378224253258798e+06  5.4578711113727977e+06  5.4761816369961798e+06  5.4926561687576547e+06  5.4960881079836357e+06  5.5047390946358070e+06  5.5151616666259840e+06  5.5225692445028126e+06  5.5257998917118786e+06  5.5265741097395960e+06  5.5272994806063445e+06  5.5273169488222804e+06  5.5287772692770809e+06  5.5315432148108138e+06  5.5313443346039681e+06  5.5313896087259343e+06  5.5324194827707838e+06  5.5296225062144119e+06  5.5194264030994885e+06  5.5059156131732315e+06  5.4932995553911040e+06  5.4705287627707245e+06  5.4267515590065168e+06  5.4084180864281273e+06  5.4243588851955878e+06  5.4335416572073717e+06  5.4361760230631446e+06  5.4389804846488060e+06  5.4435703697498590e+06  5.4503774541965174e+06  5.4755133351678662e+06  5.4836700123456139e+06  5.4874859997495227e+06  5.4882512901437040e+06  5.4841255849029422e+06  5.4717880167739624e+06  5.4573075275230035e+06  5.4366857605467495e+06  5.4294488556576483e+06  5.4286746951385839e+06  5.4286643559593894e+06  5.4284725792183699e+06  5.4268020012947461e+06  5.4253834340009848e+06  5.4239015113700721e+06  5.4185544262918830e+06  5.4045984206942888e+06  5.3807556048885128e+06  5.3686883348867716e+06  5.3760473655951796e+06  5.3804468157879664e+06  5.3819686448968733e+06  5.3807016421665326e+06  5.3812208859386109e+06  5.3798603681038544e+06  5.3795314641929250e+06  5.3775157143632956e+06  5.3764818302701050e+06  5.3741535374624562e+06  5.3539384594857022e+06  5.3291211644809255e+06  5.2921834453040380e+06  5.2508385340691404e+06  5.1938057335435450e+06  5.1141218088988308e+06  5.0085765411024662e+06  4.8869167335501695e+06  4.7554972001883257e+06  4.6299606093060272e+06  4.4404160456193378e+06  4.3304539317083349e+06  4.2879939873522120e+06  4.2774408341439990e+06  4.2845682554988060e+06  4.2889611613204665e+06  4.2935433253068300e+06  4.2996597267120350e+06  4.3049647219993994e+06  4.3092710110768257e+06  4.3102807417298267e+06  4.3102906947270883e+06  4.3087382855073605e+06  4.3046979455901776e+06  4.3032202195070172e+06  4.3060139623214481e+06  4.3079760466947444e+06  4.3086099023266025e+06  4.3086113453504620e+06  4.3065571185275856e+06  4.2938769001934472e+06  4.2895779329085015e+06  4.2812836732643470e+06  4.2757447950912341e+06  4.2673229432716081e+06  4.2573470831302572e+06  4.2446968795515290e+06  4.2323380146749280e+06  4.2249514211581964e+06  4.2237917903034715e+06  4.2235208911856711e+06  4.2233240715303402e+06  4.2231435294090891e+06  4.2231574188120523e+06  4.2231549747992055e+06  4.2226864897339977e+06  4.2195765836167531e+06  4.2025327576637836e+06  4.1412853184047602e+06  4.0565471798390378e+06  3.9888807953763269e+06  3.9527649573845356e+06  3.9382416105798380e+06  3.8836657978442968e+06  3.8447850851942068e+06  3.8133653955336800e+06  3.8038108483369793e+06  3.7735955660739304e+06  3.7338750801932956e+06  3.7198018442554963e+06  3.7214654246933986e+06  3.6998001235485524e+06  3.6335542127350071e+06  3.5299855626322175e+06  3.4231713076095209e+06  3.2623270813016240e+06  3.1169405771832420e+06  2.9662658158708098e+06  2.8664671288206633e+06  2.8089672317112242e+06  2.6879827705147355e+06  2.6242851932680719e+06  2.6184284672298832e+06  2.6082881290100208e+06  2.5605469488154608e+06  2.5122805213973504e+06  2.4100459206545996e+06  2.3058726487836661e+06  2.2387239750499707e+06  2.2124318325150297e+06  2.1822155649359240e+06  2.0685591347096090e+06  2.0511878336396397e+06  2.0554204114063082e+06  2.0497850505447083e+06  2.0567414329930565e+06  2.0739183321637886e+06  2.1129929486803180e+06  2.1851770597358453e+06  2.3080666146304011e+06  2.4393197851625369e+06  2.5566976837153779e+06  2.7176561347686383e+06  2.8100861361424359e+06  2.9078958167198822e+06  3.0268497413586588e+06  3.1576470775468042e+06  3.3318699736793428e+06  3.5305602746730968e+06  3.6393453876488991e+06  4.1685622947505410e+06  4.7311829509798773e+06  5.4833944359352225e+06  5.5256577413892774e+06  5.5312104614929575e+06  5.3938665169316335e+06  5.4871629292486543e+06  3.7210995178308664e+06  5.3716458187626619e+06  5.3816625102544930e+06  4.3069995306238187e+06  4.3041507391564222e+06  4.2230808953606403e+06  4.2231534921950577e+06  5.4650643652704833e+06  4.1685426338896691e+06  4.1684193132675746e+06  5.4773379034482483e+06  5.4887757068327628e+06  3.7211029175052708e+06  5.3733229189233696e+06  5.3816634575992320e+06  5.4365934529665643e+06  5.4740483962859530e+06  5.3809893449999215e+06  5.4757171547384458e+06  5.3809808616690878e+06  3.8708648655776014e+06  4.9378007105319230e+06  5.2902740229988089e+06  3.9102957999311904e+06  2.8764167856379813e+06  4.3534002367738932e+06  5.2242908872046117e+06  4.6343490029019061e+06  4.8496047726841643e+06  3.4718476779159969e+06  3.4640896624028347e+06  5.2885010720814001e+06  3.9488165866679284e+06  5.4299971920578321e+06  4.9862660970849646e+06  4.3825601325528789e+06  4.2036590661594244e+06  5.1177167884888360e+06  2.3254931884747520e+06  5.3433469574410021e+06  4.6902555673603164e+06  5.1546799443341186e+06  3.8631534960770519e+06  2.9145105646637240e+06  3.9263788458731920e+06  3.5839589351491896e+06  4.1375933599223355e+06  3.4190196395995733e+06  5.3592128816587962e+06  2.6556628720817491e+06  5.2579371794138309e+06  4.8476081199955521e+06  5.0953248629110726e+06  3.8565231207649093e+06  5.1531312786190156e+06  4.6873228688088618e+06  5.0054255099368030e+06  4.2658610222657062e+06  4.4039467482697396e+06  3.0997010306974854e+06  4.4393724577037944e+06  5.3841822803220246e+06  5.2501797399417181e+06  5.4925333767419150e+06  5.1593914400206152e+06  5.0543891617192514e+06  4.1554247195395599e+06  3.2553638994101742e+06  3.6225925291370777e+06  4.6174960656249980e+06  5.3435910210136427e+06  4.7133871923275460e+06  2.5027061210439764e+06  3.1825735071951342e+06  5.4094515079910038e+06  3.6367200644159056e+06  2.3303981463752324e+06  4.2885721234257407e+06  5.2818122935428265e+06  4.9085788037118725e+06  4.2116290535822250e+06  5.4089139341574358e+06  3.1102950759511818e+06  4.1676881533795600e+06  4.2207480890289592e+06  4.8711767099529253e+06  4.0176984653767818e+06  3.6648371780156358e+06  3.8266725717732278e+06  4.4762597274345504e+06  3.7129775187159758e+06  3.6920918044357370e+06  3.7564183104823879e+06  4.0993852713239933e+06  5.4725020460108528e+06  5.3585359545810344e+06  4.0319704029374081e+06  5.4474228907339368e+06  5.2562741238819482e+06  5.2662296411352288e+06  5.3371142133894525e+06  4.2355999931846363e+06  4.3032319712311365e+06  5.0053296192182470e+06  5.1576382703243420e+06  4.4103786741634728e+06  5.3587817483898681e+06  4.1315295504002711e+06  4.8675208763981583e+06  2.1389155624053301e+06  3.7758632263230574e+06  5.0261520144479843e+06  5.2913106455507586e+06  4.8246112122767204e+06  5.1082650878770044e+06  4.6443274796393719e+06  5.1680471202711416e+06  2.5673200577363917e+06  3.9775893500175085e+06  4.0066539115104321e+06  5.3185801503058523e+06  4.9911385335621657e+06  2.9529111646514367e+06  5.3669764297357686e+06  4.7840632164573502e+06  5.3876828588803215e+06  2.2724160034165154e+06  5.4783031224402757e+06  5.4756621532539539e+06  3.9253502956139208e+06  4.1467919179282640e+06  5.4767481973646199e+06  5.4936944383769026e+06  5.3654973063971419e+06  5.3701999558785055e+06  4.3011932178736804e+06  2.6668016828914448e+06  5.3914371755484557e+06  5.2782096031066319e+06  3.9382599335705927e+06  4.1239954204145563e+06  4.0076663680935102e+06  5.4920571462536072e+06  5.4749612786748046e+06  4.5746712565437611e+06  5.4235375315002799e+06  5.4521494636867689e+06  5.4643566954120602e+06  5.4949142669052463e+06  4.2981673396974318e+06  3.7277363447916363e+06  4.3028330396397449e+06  2.4739458282374106e+06  4.0790138301197439e+06  2.7854130431564609e+06  4.2938134836421823e+06  5.5224690591202453e+06  4.2747268967924379e+06  4.3041005137236426e+06  5.3666984965415550e+06  4.2677493436967079e+06  2.2374477224915340e+06  4.3028472686343556e+06  3.1765963009885577e+06  3.8164633895145599e+06  5.3699112902078889e+06  5.3516200903462898e+06  4.2262461429514699e+06  5.5219780943553681e+06  3.5297402551537449e+06  5.3991548863345794e+06  4.8580248295264505e+06  2.0901718451695663e+06  2.7117187007770753e+06  2.9088074992911797e+06  5.1333667926683575e+06  5.4068781753490595e+06  5.3820713838140918e+06  5.0213613187695695e+06  5.4864152031863835e+06  4.6831913105121860e+06  3.7230527499369411e+06  3.7226055318240132e+06  2.3488810915089073e+06  5.4765522183049591e+06  5.4804495057781637e+06  5.4820268400160167e+06  5.2685891697010584e+06  5.3444546763302619e+06  5.4792561925353641e+06  5.4498633670940204e+06  4.2868688677451769e+06  5.5305986229421049e+06  5.5299839401423130e+06  4.2064234648873657e+06  2.5120101173436767e+06  4.2230107575213816e+06  5.4222713005621796e+06  4.4293475146831227e+06  4.2556652148776511e+06  5.5239837459917879e+06  4.2518657424292462e+06  5.1816755929544056e+06  3.4053819389475128e+06  3.9427925946986489e+06  3.9100704023608831e+06  3.9764179138487303e+06  5.3767143990805307e+06  4.1157249086190625e+06  4.1423904296195940e+06  4.0839355543531184e+06  4.1402718187774480e+06  4.0026952001295700e+06  2.0832917090454991e+06  2.1644393598565068e+06  4.2276038666878585e+06  3.8935566939552580e+06  4.3099714541759128e+06  4.3098727272795737e+06  5.5281448000605591e+06  4.9465389640527368e+06  4.8003092908497909e+06  4.4569488385555651e+06  4.3683344711673940e+06  4.3511462801330546e+06  4.3032098668428976e+06  4.3309061292817248e+06  4.2948122006135369e+06  4.2765594778559050e+06  4.2860897509462722e+06  4.2665972734980639e+06  4.2723603694631280e+06  4.2703091050287476e+06  4.1295294596508415e+06  4.1814117168345368e+06  3.5831281676088851e+06  3.6492762585038710e+06  3.5771929667570991e+06  3.4823391703983760e+06  3.5204109372713040e+06  3.3508776285371226e+06  3.4705760449413080e+06  3.4115282985817911e+06  3.0792422242817814e+06  2.9359610779490648e+06  2.4002238188962047e+06  2.4971933822571551e+06  2.4707627812001831e+06  2.6302865853801165e+06  2.5321662847150341e+06  2.7648531055880110e+06  2.7507962038038792e+06  2.6064316453324575e+06  2.8641419190631495e+06  2.7906810401259041e+06  2.9153431552436021e+06  2.8409473722776836e+06  2.9902196320838253e+06  3.2062887538477089e+06  3.0649185097561157e+06  3.8891368418463399e+06  3.6515323966204179e+06  3.7522498207297428e+06  4.0018026054672245e+06  5.0533727555826232e+06  4.9719479502607090e+06  4.9055090803419119e+06  4.9825159479796067e+06  5.2294616132615395e+06  5.3271279700065227e+06  5.2789924068413982e+06  5.3259229798491150e+06  4.0324294772445546e+06  3.8171170712352972e+06  3.8386150260491390e+06  3.9466841688011228e+06  2.8768052968777157e+06  3.1626001476344378e+06  2.7397075982265142e+06  3.0306900219784211e+06  2.9879296305278512e+06  2.7128745000111614e+06  4.3796937783594728e+06  4.4908751606403440e+06  4.2848471797140175e+06  4.4164940852185944e+06  4.2282838558704611e+06  5.2407816136520030e+06  5.1636607346797930e+06  4.6615518691948308e+06  4.5404764885343611e+06  4.7593875237129238e+06  4.5247019890862312e+06  4.7317791942630773e+06  4.6397408790282682e+06  4.7718398252377799e+06  4.9294717103702268e+06  4.8576735718361791e+06  3.2024303395311004e+06  3.3584500507236980e+06  3.5428604704523413e+06  3.3279097481716010e+06  3.5204896470756959e+06  3.4334608432151987e+06  3.6699123875406887e+06  3.2781392194398041e+06  3.2934935914562312e+06  3.5629550480693285e+06  3.5976056759572597e+06  5.2260238088702466e+06  5.3397184030718850e+06  5.2776006097870916e+06  5.3450088832772626e+06  5.4100836935075605e+06  5.0752465482784053e+06  4.9093266168710925e+06  5.0495908183469372e+06  4.9881988135217000e+06  4.3006220826374488e+06  4.4308520296227597e+06  4.3964958339018431e+06  4.2604585170008317e+06  5.1883593703515045e+06  5.1380799327613078e+06  5.0845609708393048e+06  5.0641233306745961e+06  2.4693476702080965e+06  2.3940809647872089e+06  4.6893297271146392e+06  4.6546208076957678e+06  4.5875094961482417e+06  5.1533339320070408e+06  5.0832936805498535e+06  5.2136013213084396e+06  5.0930933753788630e+06  3.9423589603484455e+06  3.7798008978371751e+06  3.8234257642955557e+06  3.9158954860587008e+06  3.7875574773531617e+06  3.8340506844492787e+06  3.0871247084642351e+06  2.6997867876086640e+06  3.0414016896171509e+06  2.7268915743155894e+06  2.9267316890797820e+06  2.8362730885845339e+06  3.7809920637005977e+06  4.0694639615174155e+06  4.0142300997135625e+06  4.0267527763502845e+06  3.3666579969252218e+06  3.6427716848206720e+06  3.6397425847572740e+06  3.6858989836734477e+06  3.3972258392035170e+06  3.5502232050879137e+06  4.1493024183837678e+06  4.1883686665124348e+06  4.0737393990603285e+06  4.0599321978411903e+06  3.2983205351924645e+06  3.5259119680486307e+06  3.2670704112621532e+06  3.5438638508563759e+06  2.8729129632087108e+06  2.4816179251055913e+06  2.8687128211696441e+06  2.5871096837209701e+06  2.6589496658874475e+06  2.5595451781257126e+06  2.7759419457330266e+06  4.8351199751204811e+06  4.7514373113658894e+06  4.9229149246269334e+06  4.8967938911026809e+06  5.1009625688634748e+06  3.7646566732891453e+06  3.7814904595026914e+06  5.0925113666052595e+06  4.7820650641892608e+06  4.5859682399294106e+06  4.5536816719903583e+06  4.7371102616558420e+06  5.0866772718179077e+06  5.0049474231034499e+06  4.2522022507626051e+06  4.2590965743223419e+06  4.5153891409481447e+06  4.2580185023561437e+06  3.0935667065850380e+06  3.1335025641521728e+06  3.0038210097388444e+06  4.4284868373654652e+06  4.5402024995891666e+06  5.3303131725702919e+06  5.3722670624998147e+06  5.2084825228131991e+06  5.3077341510923756e+06  5.2055615936091645e+06  5.2152799423442939e+06  5.0853870009525875e+06  5.0297670074244253e+06  4.0601701830846807e+06  3.1020817710574921e+06  4.5481701125083724e+06  4.5949450516840285e+06  2.5245610853019082e+06  2.6328277392827081e+06  2.5032052831523120e+06  3.4185478415840855e+06  3.6900115048907818e+06  4.3503872653144160e+06  4.1526825289680394e+06  4.1701704976197151e+06  4.1409846864765249e+06  4.2492835590783581e+06  4.2437741750444118e+06  4.2078986310690800e+06  4.2395718725693114e+06  4.8485998384899907e+06  4.8277389834493948e+06  4.0000919260334088e+06  3.8537756948164152e+06  3.7444415166222453e+06  3.8608035367841716e+06  3.7279335095435362e+06  3.6172448172033085e+06  3.9300135348630683e+06  4.2266048529899903e+06  4.0793826137483660e+06  5.3159861129428837e+06  4.2790996318357578e+06  3.8798897970669516e+06  4.7403915389769515e+06  4.9103668504069773e+06  5.0525785135899251e+06  4.9682319096892653e+06  2.8685284694593055e+06  2.3818289786915123e+06  2.7851044128659437e+06  4.2847229223571140e+06  2.6448890355784120e+06  4.2546376742655067e+06  3.3714507476796499e+06  3.0428759468562184e+06  4.2304556512175072e+06  3.9454644207451581e+06  5.0186306084024571e+06  2.8716518896884490e+06  3.0209425580171719e+06  2.8003148230883442e+06  2.9300035221436173e+06  2.7192500199875138e+06  4.6868709768881723e+06  3.4909564164249087e+06  3.5703317080636774e+06  3.5330592329515535e+06  5.3100580313402796e+06  4.5423008602069113e+06  4.3424840518281525e+06  4.3226069686628785e+06  4.3305919409957537e+06  2.4464247124311910e+06  5.1059167393051339e+06  5.1245466368285213e+06  3.0585997241356112e+06  3.0005422588346135e+06  3.9055295490145967e+06  3.9750091469761250e+06  3.4829984262765064e+06  4.1028161754880911e+06  4.6745917629980166e+06  4.7353604790640129e+06  4.6220179129986959e+06  4.7596020349628450e+06  3.2367589004202103e+06  2.9861930920518544e+06  3.1154767339342930e+06  3.0515179558414756e+06  5.1233209119387753e+06  3.1072803862439878e+06  3.2395551130987485e+06  3.3032201240004953e+06  4.2488086639174195e+06  4.2569040197717454e+06  4.2825272394397315e+06  4.1818198169393847e+06  3.2034485732329264e+06  2.9868047251219600e+06  3.0992813217582027e+06  4.1252424615573394e+06  5.2465797869302239e+06  5.2719427750566863e+06  5.2995369896777822e+06  4.2416872360047232e+06  5.0459603070796216e+06  4.2073016141302828e+06  3.8060025145410625e+06  3.7601291707588788e+06  3.8287557468441497e+06  4.8679869661594629e+06  4.6422286822958309e+06  4.6945584358638022e+06  2.7132518006758206e+06  2.6377903712371741e+06  2.5697041512466730e+06  3.9456699564091195e+06  4.0192162225364414e+06  4.0170264250428467e+06  3.9294975454895636e+06  4.9514753633312425e+06  2.6954996051668888e+06  2.7066118908261652e+06  2.7147721570970649e+06  4.2673563225717852e+06  4.2501867058747606e+06  4.2594993034531893e+06  3.4648368922394826e+06  3.5381153436913169e+06  3.5753156728484025e+06  2.8886004055647538e+06  2.5577759071656973e+06  2.5710065784519152e+06  4.2580595551729742e+06  4.2639156608527293e+06  4.2620688441595323e+06  4.2462870181050776e+06  4.2523512107327180e+06  4.2417792286385288e+06  4.2611987723633461e+06  3.5939833030989231e+06  2.6252901282220930e+06  3.9580263278027829e+06  5.0733842070524413e+06  3.8935065771276103e+06  3.8599699322698200e+06  2.7904421749606235e+06  3.0745984577257796e+06  3.0320898466039742e+06  3.1682123071021275e+06  3.1306161165992669e+06  2.9218190384940756e+06  4.2561165665702485e+06  4.2195338407116467e+06  4.1911052229080596e+06  4.7234321092760256e+06  4.6904587192635331e+06  3.1422898833338534e+06  3.2247381042834204e+06  3.4053998074611076e+06  3.4429977862174027e+06  3.6329952882537604e+06  3.3194824731841949e+06  3.2776134772370835e+06  3.1924454042720399e+06  3.6916162436539363e+06  5.3048855905287135e+06  4.3258637631583950e+06  4.3915962254971555e+06  4.2697329827103494e+06  5.1017209033462619e+06  5.1123698525139708e+06  5.0744286152762072e+06  3.8702785198658942e+06  3.9587377571573039e+06  3.8987011883712104e+06  3.5842923213784783e+06  4.0605207663436369e+06  4.0289000769772693e+06  2.9808990436969865e+06  2.9370765334004341e+06  4.8796179565049605e+06  4.8735655709916512e+06  4.9164067441196861e+06  3.0687487482937966e+06  2.6378210793050728e+06  </DataArray> 
</PointData> 
</Piece>
</UnstructuredGrid>
</VTKFile>