<?xml version="1.0"?>
<VTKFile type="UnstructuredGrid"  version="0.1"  >
<UnstructuredGrid>
<Piece  NumberOfPoints="784" NumberOfCells="1320">
<Points>
<DataArray  type="Float64"  NumberOfComponents="3"  format="ascii">266913.131276 586512.314988 0  266738.13716 587762.325998 0  266363.132677 589012.328643 0  266175.641078 590169.601714 0  265666.575631 591040.7699119999 0  264875.64001 591687.766419 0  264900.636161 591845.049083 0  266088.14152 592012.3229499999 0  265561.959259 592661.17101 0  264288.136855 593037.368683 0  263865.194033 593999.8486949999 0  263850.641856 593236.729596 0  263625.634872 592756.525286 0  262689.574249 593299.848918 0  262475.636737 594003.0907310001 0  261934.554452 594340.929792 0  261725.631329 594932.094409 0  261729.256443 595728.498809 0  262138.136044 595012.330523 0  262288.141035 596262.333669 0  261488.994028 597511.480605 0  261234.15567 598316.338928 0  260815.635063 599014.863821 0  261400.643658 599389.7367680001 0  261322.963374 600022.185065 0  261119.455248 600931.061306 0  261607.436504 601293.0629359999 0  260807.446929 602089.899812 0  260025.642878 602988.868697 0  259613.135827 603937.3854499999 0  259050.643123 604100.987861 0  258411.880065 603988.6335979999 0  257764.357469 604449.872569 0  257971.239668 605320.429125 0  258041.396867 605740.635381 0  257188.143339 606987.394312 0  256038.141198 608112.3554550001 0  254788.141633 609087.4026939999 0  253588.140656 609812.362881 0  252338.135706 609737.4048949999 0  251088.138116 609787.404055 0  249963.12851 610287.399466 0  248613.130524 610462.365857 0  247363.132198 610687.407659 0  246113.130532 610837.411551 0  245832.347438 610918.209918 0  245016.946433 610958.5639439999 0  244313.129646 610762.372259 0  244400.622144 611378.093316 0  243939.669208 612460.8930899999 0  242960.649733 611984.892792 0  242170.381438 611919.647351 0  241888.122919 611112.375656 0  241393.380757 610467.6456149999 0  240594.157528 611306.369822 0  240525.621947 610804.648112 0  240363.123632 610512.3745050001 0  239113.123247 610262.374278 0  239813.12126 609037.412459 0  240588.122952 607812.368199 0  241013.119545 606625.9534560001 0  241454.373249 605724.888025 0  242238.120107 604687.3993 0  243088.121248 603462.362766 0  242860.319451 603007.3932640001 0  241563.116617 603812.361344 0  241778.400913 604327.642217 0  242059.837234 604824.879102 0  241475.620201 604923.2402390001 0  241462.182234 605449.881372 0  240906.219606 605674.888222 0  240241.856192 606891.125066 0  239891.734044 607841.012479 0  239048.653431 608724.889805 0  238118.054545 608974.895967 0  238888.111029 607337.406468 0  239738.119992 606212.362729 0  240288.12044 605687.4075229999 0  240380.212307 604729.521696 0  239347.309632 604603.204501 0  238888.112036 604387.408787 0  237913.11173 604687.401386 0  236784.172023 604499.882783 0  236883.408793 603717.08334 0  236154.933927 603595.565605 0  235688.103943 602912.369264 0  235763.108033 601662.366516 0  236363.110805 600412.35884 0  236738.107995 599162.356577 0  236525.607944 598482.2412899999 0  236138.109208 599362.357613 0  235725.063048 600325.4466510001 0  235091.948926 601408.5220979999 0  235188.10921 600312.366344 0  234375.602405 600833.9674270001 0  234663.109308 599912.358011 0  234138.105122 600062.365644 0  233955.307245 599029.561063 0  233338.103791 598387.401556 0  233988.09795 597862.356384 0  235138.101489 596637.3947750001 0  235563.1039 595387.392428 0  236513.103639 594212.356312 0  237163.10684 592987.3929869999 0  238313.103031 591862.3515540001 0  239513.107028 590812.3512640001 0  240638.102135 589787.387271 0  241463.109549 588587.378486 0  242294.489816 587443.735215 0  242913.101099 586512.341804 0  243544.066915 585474.859604 0  243040.448415 585184.975583 0  242438.10214 585337.38015 0  241313.102353 586562.339499 0  240538.107104 587787.382449 0  240114.641085 588588.939407 0  239388.100256 589437.382238 0  238188.104456 590512.346358 0  236938.100507 591362.349798 0  235813.10453 592537.396388 0  234864.502938 593178.7753880001 0  234463.097651 592862.357267 0  235113.0965 591662.3545979999 0  235713.101522 590412.346099 0  235777.688431 589976.7582779999 0  234943.583145 590706.265132 0  234462.482256 591490.2841159999 0  233801.497784 592112.940187 0  233388.099101 591787.394208 0  234013.093099 590437.393065 0  234776.217248 587148.7548100001 0  235163.093726 586562.3486189999 0  235313.098918 585483.229012 0  235250.59732 584662.298153 0  235588.093896 583337.379493 0  236329.432041 582199.858992 0  237188.096234 581462.3349939999 0  237463.088521 580212.335511 0  238350.592558 579057.652616 0  238591.415797 578574.847681 0  238313.094106 577612.328905 0  239229.696732 577695.769664 0  240195.161018 577513.008613 0  240614.996733 577149.8518770001 0  240663.091715 577412.332622 0  240288.092486 578662.334085 0  239942.357258 579508.095811 0  240438.100019 580212.3334220001 0  241338.095553 580387.375355 0  241238.099828 579137.369157 0  241788.097003 577887.370889 0  241983.554649 577241.9220939999 0  242054.178239 576927.8105029999 0  242588.100699 575737.366175 0  243149.324833 574898.583978 0  243695.278626 573919.517981 0  244268.494418 573724.8454239999 0  244995.134063 573930.2767810001 0  245417.314363 573391.601898 0  243450.599125 571859.479773 0  245776.797908 572599.8353060001 0  246779.639852 572973.285167 0  248034.741935 573186.082054 0  249413.10651 573162.3205520001 0  250496.922226 573271.1521899999 0  251613.105126 573237.3551319999 0  252421.824577 572846.032906 0  253256.245022 572580.4733130001 0  253739.471933 571960.9547369999 0  254174.511864 572149.8346569999 0  254484.944333 571684.194807 0  254384.108649 570891.346712 0  254344.002752 570218.26407 0  255025.609604 570829.0294979999 0  255715.005913 570489.264586 0  256218.846343 570774.828355 0  256834.349083 570508.5908 0  257390.092515 570014.308325 0  257624.431042 568493.478911 0  259355.811717 569380.021819 0  260033.372814 569617.066669 0  262679.741751 570320.699974 0  263289.115756 569524.817815 0  263463.114338 570512.301061 0  264638.198419 570687.3443539999 0  265058.220065 571334.378467 0  265447.561421 572077.90485 0  265488.125257 573137.3446020001 0  265131.937715 573963.293593 0  265432.389648 575093.068786 0  265638.122314 576338.029955 0  265750.630817 577371.8281319999 0  265738.570663 578561.9098850001 0  265875.630866 579139.630549 0  266213.129247 579862.311842 0  266563.130472 581112.314509 0  266238.135356 582362.310259 0  265938.12863 583612.320897 0  265738.131342 584762.3210189999 0  266875.638633 585365.358768 0  264018.7239399826 593650.4646671159 0  262236.3944351029 595831.1252656333 0  241846.246678 605206.1436625 0  240200.622106 608424.8903290001 0  240943.4862974102 610939.7757535663 0  236550.6094 599787.3577085 0  238528.1212051503 608102.9081793013 0  244413.4891967989 572609.5960859474 0  236382.0474488751 598808.3067022427 0  235369.601910944 600933.5380148316 0  235413.099011 591037.3503485 0  235446.2251831186 590266.6553871984 0  240475.5921005 578037.3333535 0  240413.173949154 577324.4280286073 0  240574.037899 606283.0066440001 0  263857.9179445 593618.2891454998 0  264153.4303974913 593343.916675058 0  242042.1833925 604946.7714812499 0  241650.3099635 605465.51584375 0  244613.6985165 572229.6575395 0  236631.8579695 598822.2989335 0  235140.029068 600860.444221 0  241767.7287175 604874.0596705 0  242140.15174975 604817.0853906251 0  234781.8558075 600573.1668855001 0  242091.167571125 604881.9284359375 0  234519.3558565 600373.162719 0  254604.8337712102 583989.0014118921 0  250699.5846056537 594617.3297041012 0  250540.4796469513 602258.2940568649 0  248483.7490186612 580334.7345534252 0  258549.2190328319 577893.951823392 0  257067.0067473103 590016.5327808241 0  243285.0921999099 596333.923437875 0  248333.1386145258 589098.0389905117 0  256142.8445072741 595883.3911551933 0  260245.1368072523 583315.2785712298 0  253472.3380211276 578932.2908163272 0  246432.3347504817 599884.5019511909 0  261555.9240922556 588041.186709004 0  247293.1100123104 605823.8307887657 0  246458.2798550911 593168.8646574575 0  252840.0183145193 588226.5564648228 0  249828.2874404451 584740.7888937403 0  255409.5660975206 600458.8956828594 0  260819.9733392385 574219.403683011 0  252584.2262054711 605722.6603825617 0  254049.8830611471 592547.4852571967 0  250015.4356193061 598425.2225922942 0  245872.072249477 577604.9761853142 0  262002.1583249522 579753.4663046852 0  257732.6630933878 586227.970805314 0  250242.5556457866 577017.3316409125 0  244921.6453001869 581816.6358421432 0  256520.3890639471 580904.824006648 0  240779.0970645865 599524.6679555867 0  257100.1829219198 574459.5922545703 0  239912.2630002034 595231.1172704464 0  244703.0875078634 590068.6945953515 0  242549.5490268674 592874.3693043783 0  251586.0465921376 581796.2215047925 0  246643.189997516 596527.447801719 0  251049.7658069622 591057.6752245198 0  253014.5731561695 596998.6601086652 0  238680.2197353724 584542.2309791476 0  259715.365803504 591937.1938619445 0  254097.157218761 575731.4494927844 0  246806.6408589328 586139.0877599345 0  246136.1179750556 602959.471719323 0  253520.7033332401 602835.180253843 0  244125.4295793909 607538.9817227355 0  252546.8895354472 599881.3279113505 0  258289.0983523553 600397.640191779 0  247518.7952199645 583037.3718217331 0  263140.3959879661 582529.2228421422 0  262894.8586894067 585442.3590432997 0  256968.6320599076 593040.7691844478 0  243573.0187527719 600218.2795730785 0  258888.5766127351 595139.7745218446 0  262588.7569809347 576734.8569237856 0  259318.4257992262 580601.2540325444 0  249963.3812725965 607065.7205847671 0  257494.5307999607 583482.5893534871 0  258906.4757205145 572278.8089438241 0  237751.446593475 587300.5805003279 0  255142.4708720699 604956.7580261135 0  258485.4978753244 597756.9250383095 0  255516.7820591553 587791.39641967 0  239758.4692108706 601926.8203218657 0  255873.0092222999 577739.5085867504
[...]
<PointData  Scalars="f_32-0"> 
<DataArray  type="Float64"  Name="f_32-0"  format="ascii">5.3804614113563262e+06  5.4726425612274967e+06  5.5761539094280060e+06  5.6577745399967013e+06  5.7111156834556805e+06  5.7889244356077472e+06  5.8167428074624781e+06  5.8414181584572168e+06  5.8406579678498674e+06  5.8530125774754724e+06  5.8619951349083390e+06  5.8593216431259383e+06  5.8702084343981082e+06  6.0055992076324401e+06  6.1120322764487946e+06  6.2183421663654214e+06  6.3757346107298890e+06  6.5642666657210449e+06  6.5882505117707187e+06  6.6174672241500588e+06  6.7748244877339248e+06  6.9028830818480421e+06  7.0512578658315223e+06  7.1313654589017862e+06  7.1701125829486959e+06  7.2544353871243959e+06  7.2787531013074238e+06  7.3239209843956856e+06  7.4161376514758393e+06  7.4804763009983534e+06  7.5012718849075837e+06  7.5601352491392847e+06  7.7016549014536003e+06  7.8118746790789561e+06  7.8316015602368228e+06  7.9186644177503977e+06  8.0154023768124999e+06  8.1009408082647109e+06  8.1569513563374504e+06  8.2066240896175904e+06  8.2781604093048321e+06  8.3451697476601955e+06  8.4070198354094531e+06  8.4635514757260606e+06  8.5143440142485909e+06  8.5248995301669035e+06  8.5514583530107420e+06  8.5833016130689587e+06  8.6057305860379096e+06  8.6154794404549450e+06  8.6178862048808895e+06  8.6201357733986191e+06  8.6203180072027724e+06  8.6249465388077050e+06  8.6332760622239746e+06  8.6326935182736292e+06  8.6328612344095558e+06  8.6359689625671282e+06  8.6277527944989949e+06  8.5979020102200266e+06  8.5586045546956472e+06  8.5221272912876885e+06  8.4570968078894075e+06  8.3378757002479574e+06  8.2964973512611510e+06  8.3585677359670177e+06  8.3868324086224521e+06  8.3947704259137586e+06  8.4031745833985675e+06  8.4167621737162173e+06  8.4366362413589116e+06  8.5095944072882794e+06  8.5332044875011984e+06  8.5442303988722488e+06  8.5464393662191220e+06  8.5345205392473154e+06  8.4987998491975442e+06  8.4567997813877650e+06  8.3975206974219102e+06  8.3790183199450811e+06  8.3781718466299651e+06  8.3800034699788066e+06  8.3802410757900821e+06  8.3762456755711278e+06  8.3731579525218830e+06  8.3695533376937071e+06  8.3558736809177715e+06  8.3199651911803428e+06  8.2605793390519433e+06  8.2344694987537963e+06  8.2583999074711939e+06  8.2712181259524440e+06  8.2755534416364403e+06  8.2719743736276124e+06  8.2734903314830698e+06  8.2696931443201844e+06  8.2688368229876161e+06  8.2633328610924119e+06  8.2605596214133594e+06  8.2541429096154841e+06  8.1994017562805377e+06  8.1339311246346543e+06  8.0371473992778137e+06  7.9292708990759514e+06  7.7801746860205559e+06  7.5725351412106697e+06  7.3035656504397057e+06  7.0035106242820220e+06  6.6975048700101003e+06  6.4297412969533298e+06  6.0977831891628737e+06  6.0344631374464110e+06  6.1426373435706059e+06  6.4650733984130640e+06  6.6741925315657072e+06  6.7604968028876651e+06  6.8388828440024862e+06  6.9288190488572940e+06  6.9931288859627675e+06  7.0378812016685810e+06  7.0476386236636704e+06  7.0477326537329396e+06  7.0326637094658390e+06  6.9914013301706640e+06  6.9764202684105933e+06  7.0067365780730639e+06  7.0260919774846034e+06  7.0321853129084948e+06  7.0321844910905687e+06  7.0122470760102132e+06  6.8793197293787235e+06  6.8337205004708860e+06  6.7517514666997371e+06  6.7009902002072958e+06  6.6280087523055216e+06  6.5475545971219987e+06  6.4552207831988242e+06  6.3832719134822180e+06  6.3552226005383600e+06  6.3602070153314024e+06  6.3672744761270927e+06  6.3663106936520841e+06  6.3693303342776252e+06  6.3709905861398885e+06  6.3707854618128696e+06  6.3572525618249280e+06  6.3087949428428076e+06  6.1538918475502292e+06  5.7742432073822198e+06  5.4196871107600946e+06  5.1926170603176840e+06  5.0872653913582992e+06  5.0474116499283826e+06  4.9055008712561447e+06  4.8088975992689701e+06  4.7324194894933561e+06  4.7059937974209022e+06  4.6202408149865773e+06  4.5301836422612118e+06  4.5544845907072341e+06  4.5090568523058323e+06  4.4098232269583205e+06  4.1890780147063592e+06  3.9350051516153491e+06  3.7774626865532547e+06  3.6807132944307900e+06  3.6850354219002319e+06  3.7590386028169240e+06  3.8384943548207530e+06  3.8931312717709583e+06  4.0235628484921944e+06  4.1008324397034151e+06  4.1093128084968068e+06  4.1157277934477781e+06  4.1650072343872925e+06  4.2149486958954325e+06  4.3271266576987645e+06  4.4461754768978162e+06  4.5251579039837494e+06  4.5439500502464632e+06  4.5712340263194423e+06  4.6964694716387931e+06  4.7177731691416465e+06  4.7153236489371965e+06  4.7290646154581681e+06  4.7257508929452514e+06  4.7137442732828120e+06  4.6834787952280352e+06  4.6303127463814802e+06  4.5594485975495744e+06  4.5118438871816266e+06  4.4934641865249956e+06  4.5072603953891089e+06  4.5389388998302286e+06  4.5911348312533731e+06  4.6715072540747533e+06  4.7691273955411799e+06  4.9288475910966732e+06  5.1578929421813088e+06  5.3112237789192367e+06  5.8612710094334055e+06  6.5969372522094529e+06  8.4936827368605416e+06  8.6161305232437290e+06  8.6322837910759766e+06  8.2927759330378864e+06  8.5432973281107973e+06  4.5444883749080608e+06  8.2450225162052251e+06  8.2746846280332943e+06  7.0151938685577810e+06  6.9873683841410233e+06  6.3674212841338348e+06  6.3706428253256883e+06  8.4793056515583526e+06  5.8612653570693452e+06  5.8593501664318722e+06  8.4764038569364361e+06  8.5091103050352447e+06  4.5444910637312951e+06  8.2432387954898542e+06  8.2746871809198679e+06  8.3960345473107789e+06  8.4670596573759578e+06  8.2728330847768318e+06  8.4717962325767111e+06  8.2728100809766091e+06  4.4124411504049059e+06  6.8851930280241044e+06  7.8902287270114496e+06  4.4386568140614210e+06  3.4396340895033167e+06  5.2608441690173950e+06  7.8042826351217115e+06  6.1810544215186676e+06  6.6766726673821984e+06  4.5355907916577244e+06  3.5996999098214316e+06  7.9272464054913018e+06  5.3384222337326938e+06  8.3245931074914047e+06  7.1181975456526950e+06  5.1094161218542689e+06  5.1711259767507566e+06  7.3999880029572295e+06  4.2831592757175742e+06  8.0529234507056773e+06  6.0849117845467618e+06  7.5029624000423467e+06  4.6207772837097095e+06  4.1989345507169925e+06  4.6565867101117680e+06  3.8094983358571474e+06  5.2863054006680138e+06  3.9276166264413958e+06  8.1845279753594520e+06  3.8460759700402422e+06  7.9342490307955854e+06  6.8373295735436324e+06  7.4909194241020316e+06  4.4107162081411788e+06  7.5557833765275916e+06  6.1520554787086258e+06  7.0608279356640344e+06  6.5307437613596972e+06  5.8460432961687939e+06  3.4550236439235392e+06  5.8650060919706281e+06  8.1984559123492930e+06  7.7687246527900100e+06  8.5169264031975456e+06  7.4996009821485132e+06  7.2661600507845227e+06  5.1351704472380653e+06  4.6723203782100817e+06  5.0794129988165665e+06  6.0130890627695778e+06  8.1141387035874538e+06  6.4670128644449413e+06  4.2494627700965777e+06  3.9817144888538509e+06  8.2572466485434193e+06  4.3512800085546626e+06  4.3556505736672990e+06  6.7922691034155879e+06  7.8715811825011680e+06  6.9145573392915335e+06  4.6955510206574611e+06  8.3217679473246681e+06  3.3750051440113415e+06  5.7128008113155570e+06  5.9274873952779053e+06  6.7447716977517726e+06  5.1290370026351111e+06  4.1198490592119843e+06  5.4400819542541038e+06  5.3545651836343147e+06  4.0204406793592665e+06  4.2076927401836747e+06  4.9161901585163763e+06  5.1504083510246044e+06  8.4533493902235720e+06  8.0987802050139988e+06  4.7163919956888258e+06  8.3850733255133517e+06  7.8625796066503869e+06  7.8342017502457099e+06  8.1418904548014570e+06  6.3193443959229439e+06  5.6638011748646554e+06  7.0858845648504412e+06  7.5241922725285487e+06  5.5073825874660136e+06  8.1071363631298244e+06  4.6069431494448036e+06  6.6559196817979068e+06  4.6089489768956071e+06  4.2061078055997137e+06  7.1785203553813361e+06  8.0058300743187489e+06  6.6978661858638702e+06  7.4841891382784853e+06  6.3911997121668011e+06  7.7048578960982021e+06  3.8241796572701731e+06  4.7023947842845265e+06  4.7339202913856497e+06  8.1028551252768617e+06  7.1826416102296952e+06  4.5156132093958184e+06  8.1279576218033135e+06  6.4106325334566971e+06  8.2716237444870891e+06  4.4894378893307205e+06  8.4774830002010819e+06  8.4711023243144490e+06  4.9496890020804340e+06  5.8227121079478720e+06  8.4745940202219803e+06  8.5180055210426804e+06  8.2190928220413197e+06  8.2427145718728220e+06  6.9572685816098340e+06  3.9771555625732942e+06  8.2334812431026381e+06  7.8650342777356915e+06  5.0320738189314837e+06  5.8103650923646614e+06  5.6492177046090085e+06  8.5182355070656706e+06  8.4696125526779033e+06  6.2525326188334208e+06  8.3618802707011746e+06  8.4058487129590716e+06  8.4393770402419437e+06  8.5213992774283644e+06  5.8227572934835413e+06  4.4364892315832209e+06  6.9696302850664277e+06  4.2214714269652395e+06  5.7424096032635402e+06  4.4765336570749823e+06  6.8728741003987109e+06  8.6064975622488987e+06  6.6741515338614453e+06  6.9875500162042985e+06  8.2254239358953126e+06  6.0091024839137476e+06  4.5022064065649481e+06  6.9740933564535892e+06  3.5799591553149009e+06  4.7273032659675637e+06  8.2409143863654509e+06  8.1914050535463551e+06  6.3255167674397556e+06  8.6044299043714665e+06  3.8432568218978452e+06  8.3046745001969663e+06  6.8326869239205923e+06  4.6891187073929431e+06  3.9720512795613864e+06  3.6860259370698873e+06  7.4713826375298835e+06  8.2823879728926783e+06  8.2232429095581006e+06  7.1992189696532506e+06  8.5022146492637563e+06  6.4807625299183857e+06  4.5320377223300403e+06  4.5319936919471342e+06  4.3824692623997200e+06  8.4741587826046050e+06  8.4852688729673047e+06  8.4897207080229484e+06  7.8378186682001026e+06  8.1671800329229413e+06  8.4733292212817669e+06  8.3825569712141780e+06  6.7371287579279784e+06  8.6304724772336539e+06  8.6287591909214333e+06  6.0975701641575955e+06  4.4360223937878171e+06  6.3442424088394456e+06  8.3162546486568991e+06  6.0854702568993652e+06  6.5088861141505428e+06  8.6100734346856475e+06  6.2650372547139497e+06  7.5946246890106145e+06  4.9406283969184682e+06  5.0561814622914279e+06  4.9726791421361584e+06  5.1439085872777635e+06  8.2606968006881028e+06  5.8059383645736072e+06  5.8416750612162529e+06  5.7650973693067115e+06  5.8350255358483978e+06  5.6864197115162406e+06  4.6798170016231025e+06  4.5687822200631844e+06  5.8525372325139549e+06  4.9181592324793618e+06  7.0446733691410907e+06  7.0437317778290994e+06  8.6232130570931807e+06  7.1297703089982141e+06  6.7773224404697604e+06  6.0139547953442475e+06  5.9008912503711041e+06  5.9540740218320433e+06  6.0768371631417191e+06  5.9539906643285081e+06  6.0299187668606862e+06  6.3119276220012810e+06  6.0749397067600787e+06  6.1989084647394726e+06  6.4848147135179462e+06  6.3416872545946278e+06  5.5319581544914609e+06  5.8766934645539792e+06  4.0518570347356978e+06  4.1874691125934590e+06  4.0101766989628803e+06  3.8531033377698888e+06  3.8906997519350969e+06  3.7168079131199564e+06  3.8072095205674018e+06  3.7377364600305576e+06  3.6683335162275466e+06  3.7425142776524862e+06  4.5084899435029496e+06  4.4998954075709088e+06  4.4899108112147795e+06  4.4936352544921068e+06  4.4801355861584740e+06  4.5211806570364563e+06  4.5021831527252793e+06  4.4747299971324671e+06  4.5657814953937819e+06  4.5171517286231034e+06  4.5700300365336239e+06  4.5428559683902031e+06  4.6229820602702321e+06  4.7638991467545042e+06  4.6691128859151658e+06  4.4277170673471652e+06  4.2072886997307902e+06  4.3357472638521511e+06  4.5084896040563127e+06  7.2146881566607645e+06  6.9672161412191037e+06  6.8139591417036941e+06  7.0336321686078841e+06  7.7051242971012797e+06  8.0020829442639844e+06  7.8624464554435369e+06  8.0027560066232188e+06  4.7661890897884974e+06  4.2451501157207405e+06  4.2833166338266544e+06  4.5316561560293194e+06  3.7893811003979826e+06  3.5927888283913736e+06  3.5557024209957728e+06  3.6598054331688751e+06  3.3620154863181240e+06  3.5766116469955873e+06  5.5723828879620172e+06  5.6208087338293055e+06  4.9623496456676330e+06  5.2461679575382806e+06  5.1817852637950443e+06  7.8717542666234523e+06  7.6555775546466522e+06  6.1600419937640531e+06  6.0243712022584071e+06  6.4649027740015471e+06  5.8581380389970206e+06  6.4468249219392939e+06  6.2892838041949496e+06  6.3879835608745310e+06  6.8596663832571926e+06  6.6460738992882967e+06  4.3280208324272158e+06  4.6027755606406601e+06  4.8151001306401845e+06  4.2761530128077697e+06  3.6393248407563260e+06  3.7361220101558436e+06  3.9881345678820363e+06  3.4103480264504179e+06  3.4577548399974718e+06  3.8538417064518160e+06  3.7830528986248346e+06  7.7278452423660709e+06  8.0718967903752690e+06  7.8810769830685407e+06  8.0957927883396773e+06  8.2685694473648435e+06  7.3505196350556482e+06  6.9143385668430338e+06  7.3087033602800742e+06  7.1481391065785531e+06  4.8208933287550025e+06  5.2010677110596737e+06  5.3077047410186240e+06  4.7989887307499005e+06  7.5915767329450082e+06  7.4443313932494940e+06  7.3268120136680203e+06  7.2504914748818548e+06  4.0461348100970131e+06  4.2245060360176191e+06  6.1010098087633941e+06  6.0043162586972034e+06  5.7311771369767338e+06  7.5251817411931418e+06  7.2859170143327825e+06  7.6767748796301261e+06  7.3443695126880752e+06  4.8539615482203774e+06  4.4135949322565803e+06  4.4023170888398187e+06  4.6380178363233833e+06  4.5206970005065575e+06  4.6973593408091748e+06  4.4322923971180068e+06  4.1579198161199968e+06  4.0529646820705389e+06  3.9178562559190011e+06  4.3766298996891472e+06  4.3596553690503566e+06  4.4984080659259101e+06  4.6325132804698590e+06  4.8924539896633653e+06  4.4937535523852687e+06  3.5186997052552360e+06  3.8754967025413807e+06  3.9876140608556480e+06  4.0107389239664911e+06  3.5984714179299660e+06  3.8080268109146738e+06  5.1758368744630739e+06  5.6343256821243977e+06  5.1889789979654038e+06  4.9796320255596731e+06  3.9221045843832619e+06  4.1678511429139543e+06  3.5765942399120438e+06  4.0068163762590364e+06  3.6014919007814890e+06  4.1236154321631887e+06  3.4961922678802628e+06  3.7863581123878225e+06  3.9204292356707179e+06  4.0571474553408111e+06  3.7612107010057280e+06  6.7644430779700959e+06  6.6203043510731291e+06  7.0142691774573466e+06  6.9865852844969574e+06  7.4857461859727325e+06  4.2457292539954437e+06  4.2071866823623311e+06  7.3758990261963978e+06  6.4664206940387087e+06  5.7540776159052188e+06  5.8022041938795112e+06  6.2807370206307843e+06  7.2919080556027647e+06  7.0682548461070778e+06  6.4198549118270976e+06  6.4102757956264894e+06  5.9040960783157134e+06  5.4965548121709060e+06  3.3935958019523695e+06  3.5119394761309391e+06  3.5538857161275037e+06  5.7178970245743943e+06  6.1291589534049593e+06  8.0327337864410086e+06  8.1549522030652845e+06  7.6431672530687638e+06  7.9408987070273040e+06  7.6464931032514218e+06  7.6684415165799828e+06  7.2937410229396774e+06  7.1803314323699595e+06  4.8569905551493764e+06  4.5776080922791855e+06  5.6519185898573883e+06  6.1473865934763327e+06  4.0440196840474433e+06  4.3561495379188051e+06  4.3589724169560140e+06  4.1973988879211694e+06  4.6052528890286358e+06  4.9807029630235843e+06  4.8812009106997428e+06  4.5920946864233762e+06  5.4799652065324737e+06  5.8545950025196653e+06  5.9659819807347972e+06  6.0008060251046661e+06  6.1025867016323796e+06  6.7201776011251574e+06  6.5779516941771368e+06  4.9218990415089214e+06  4.4238495567750884e+06  4.0857962773537128e+06  4.3745368600329859e+06  4.1937767171187084e+06  4.0154682528718929e+06  5.0279157536200378e+06  5.0673199468587711e+06  4.6744632904553283e+06  7.9800235001843488e+06  5.0084863706227010e+06  4.4268407218422750e+06  6.5450364505670574e+06  6.9466008995089494e+06  7.3395776743425578e+06  7.1557153627882553e+06  4.4904310086763278e+06  4.4462017002720088e+06  3.8278933179406491e+06  5.9118958216464026e+06  4.4374428496663095e+06  6.1344567888749223e+06  3.6538911496398412e+06  3.6071447200644636e+06  6.1744959099429781e+06  4.4362560792505099e+06  7.1249563693087958e+06  3.5864992027192777e+06  3.4705834517153013e+06  3.4437128548105457e+06  3.3867846456395038e+06  3.5334823234271980e+06  6.3671441079612225e+06  3.5952001445527272e+06  3.7797166155186743e+06  3.6795626780446037e+06  7.9809209260884011e+06  5.6599907697694823e+06  4.9511776030371645e+06  4.9417088541274080e+06  5.0397803205303578e+06  4.0402574290969875e+06  7.3640115169663383e+06  7.4246183292751303e+06  4.2436742788460888e+06  4.3140942877574535e+06  4.5148760154762603e+06  4.5517555762897423e+06  3.6442352005461799e+06  5.0615901740216780e+06  6.1525475837526089e+06  6.3142983166126534e+06  5.9737827315917797e+06  6.3738777407675348e+06  3.4537066824179441e+06  3.5095738131270641e+06  3.4812577087186682e+06  3.4990525568254958e+06  7.3976914028446469e+06  3.8210772496289834e+06  3.9435512835457441e+06  4.0921147397567490e+06  4.8200030147567829e+06  4.7344077059812145e+06  4.8222942623833865e+06  4.7654914429099625e+06  3.4099079401687952e+06  3.3896454232582962e+06  3.3776553709840062e+06  5.0163572517014295e+06  7.7816723751883153e+06  7.8575722671966525e+06  7.9373620031370064e+06  6.2875205122334268e+06  7.1893288666598639e+06  4.7823885700070225e+06  4.2360844973622346e+06  4.1353273164914777e+06  4.3140010887500206e+06  6.8235643226468572e+06  6.3414102487623813e+06  6.4701236768091768e+06  3.7219733615508969e+06  3.6933298100909702e+06  3.7770909688181262e+06  4.6614948418178968e+06  4.8342918694478385e+06  4.7545052140793521e+06  4.5541833753609750e+06  7.0666005814553397e+06  4.4701987335108295e+06  4.4154370588328568e+06  4.4523126858797371e+06  6.1029578247424504e+06  6.0508793344554882e+06  6.0702474437797666e+06  3.7103077778016911e+06  3.8217935954431836e+06  3.9251754408499761e+06  3.6444353619013224e+06  4.4561371291278796e+06  4.3961495523955245e+06  6.2291749422631525e+06  6.3727590077467710e+06  6.2973056752315965e+06  6.1852736396591254e+06  6.2000564708299637e+06  6.2176355762982955e+06  6.1656025811564494e+06  4.0091208437949587e+06  4.4585447200047616e+06  4.4588910665866649e+06  7.2797433431090349e+06  4.4013876272885790e+06  4.3472920806944743e+06  3.6377893676668042e+06  3.4365852346635982e+06  3.8559345918678436e+06  3.7786519611897515e+06  3.4292416724806768e+06  3.3940173968738671e+06  5.0598721353046540e+06  4.9084280553683098e+06  5.0306960656918837e+06  6.3136061206287257e+06  6.4181028551283227e+06  4.3768818125779256e+06  4.5086743839911567e+06  3.4922784909149013e+06  3.5545424687068481e+06  3.8786177489931765e+06  3.4463880494044409e+06  3.5050329231394730e+06  3.3903423086953787e+06  3.9917446227693278e+06  7.9593264492738619e+06  4.8888373879044978e+06  5.0733752576828245e+06  4.8972216355959829e+06  7.3472110735453581e+06  7.3707773479368147e+06  7.2699806039079782e+06  4.5142065422516409e+06  4.7723145438536126e+06  4.5261386279406715e+06  3.9060583168101949e+06  4.9034791151783615e+06  4.9409217899962356e+06  3.4682192762353281e+06  3.5728609136948884e+06  6.8909049492962044e+06  6.8562756236854503e+06  6.9797139653803371e+06  3.5260521221572501e+06  4.4009076007425115e+06  </DataArray> 
</PointData> 
</Piece>
</UnstructuredGrid>
</VTKFile>