<?xml version="1.0"?>
<VTKFile type="UnstructuredGrid"  version="0.1"  >
<UnstructuredGrid>
<Piece  NumberOfPoints="784" NumberOfCells="1320">
<Points>
<DataArray  type="Float64"  NumberOfComponents="3"  format="ascii">266913.131276 586512.314988 0  266738.13716 587762.325998 0  266363.132677 589012.328643 0  266175.641078 590169.601714 0  265666.575631 591040.7699119999 0  264875.64001 591687.766419 0  264900.636161 591845.049083 0  266088.14152 592012.3229499999 0  265561.959259 592661.17101 0  264288.136855 593037.368683 0  263865.194033 593999.8486949999 0  263850.641856 593236.729596 0  263625.634872 592756.525286 0  262689.574249 593299.848918 0  262475.636737 594003.0907310001 0  261934.554452 594340.929792 0  261725.631329 594932.094409 0  261729.256443 595728.498809 0  262138.136044 595012.330523 0  262288.141035 596262.333669 0  261488.994028 597511.480605 0  261234.15567 598316.338928 0  260815.635063 599014.863821 0  261400.643658 599389.7367680001 0  261322.963374 600022.185065 0  261119.455248 600931.061306 0  261607.436504 601293.0629359999 0  260807.446929 602089.899812 0  260025.642878 602988.868697 0  259613.135827 603937.3854499999 0  259050.643123 604100.987861 0  258411.880065 603988.6335979999 0  257764.357469 604449.872569 0  257971.239668 605320.429125 0  258041.396867 605740.635381 0  257188.143339 606987.394312 0  256038.141198 608112.3554550001 0  254788.141633 609087.4026939999 0  253588.140656 609812.362881 0  252338.135706 609737.4048949999 0  251088.138116 609787.404055 0  249963.12851 610287.399466 0  248613.130524 610462.365857 0  247363.132198 610687.407659 0  246113.130532 610837.411551 0  245832.347438 610918.209918 0  245016.946433 610958.5639439999 0  244313.129646 610762.372259 0  244400.622144 611378.093316 0  243939.669208 612460.8930899999 0  242960.649733 611984.892792 0  242170.381438 611919.647351 0  241888.122919 611112.375656 0  241393.380757 610467.6456149999 0  240594.157528 611306.369822 0  240525.621947 610804.648112 0  240363.123632 610512.3745050001 0  239113.123247 610262.374278 0  239813.12126 609037.412459 0  240588.122952 607812.368199 0  241013.119545 606625.9534560001 0  241454.373249 605724.888025 0  242238.120107 604687.3993 0  243088.121248 603462.362766 0  242860.319451 603007.3932640001 0  241563.116617 603812.361344 0  241778.400913 604327.642217 0  242059.837234 604824.879102 0  241475.620201 604923.2402390001 0  241462.182234 605449.881372 0  240906.219606 605674.888222 0  240241.856192 606891.125066 0  239891.734044 607841.012479 0  239048.653431 608724.889805 0  238118.054545 608974.895967 0  238888.111029 607337.406468 0  239738.119992 606212.362729 0  240288.12044 605687.4075229999 0  240380.212307 604729.521696 0  239347.309632 604603.204501 0  238888.112036 604387.408787 0  237913.11173 604687.401386 0  236784.172023 604499.882783 0  236883.408793 603717.08334 0  236154.933927 603595.565605 0  235688.103943 602912.369264 0  235763.108033 601662.366516 0  236363.110805 600412.35884 0  236738.107995 599162.356577 0  236525.607944 598482.2412899999 0  236138.109208 599362.357613 0  235725.063048 600325.4466510001 0  235091.948926 601408.5220979999 0  235188.10921 600312.366344 0  234375.602405 600833.9674270001 0  234663.109308 599912.358011 0  234138.105122 600062.365644 0  233955.307245 599029.561063 0  233338.103791 598387.401556 0  233988.09795 597862.356384 0  235138.101489 596637.3947750001 0  235563.1039 595387.392428 0  236513.103639 594212.356312 0  237163.10684 592987.3929869999 0  238313.103031 591862.3515540001 0  239513.107028 590812.3512640001 0  240638.102135 589787.387271 0  241463.109549 588587.378486 0  242294.489816 587443.735215 0  242913.101099 586512.341804 0  243544.066915 585474.859604 0  243040.448415 585184.975583 0  242438.10214 585337.38015 0  241313.102353 586562.339499 0  240538.107104 587787.382449 0  240114.641085 588588.939407 0  239388.100256 589437.382238 0  238188.104456 590512.346358 0  236938.100507 591362.349798 0  235813.10453 592537.396388 0  234864.502938 593178.7753880001 0  234463.097651 592862.357267 0  235113.0965 591662.3545979999 0  235713.101522 590412.346099 0  235777.688431 589976.7582779999 0  234943.583145 590706.265132 0  234462.482256 591490.2841159999 0  233801.497784 592112.940187 0  233388.099101 591787.394208 0  234013.093099 590437.393065 0  234776.217248 587148.7548100001 0  235163.093726 586562.3486189999 0  235313.098918 585483.229012 0  235250.59732 584662.298153 0  235588.093896 583337.379493 0  236329.432041 582199.858992 0  237188.096234 581462.3349939999 0  237463.088521 580212.335511 0  238350.592558 579057.652616 0  238591.415797 578574.847681 0  238313.094106 577612.328905 0  239229.696732 577695.769664 0  240195.161018 577513.008613 0  240614.996733 577149.8518770001 0  240663.091715 577412.332622 0  240288.092486 578662.334085 0  239942.357258 579508.095811 0  240438.100019 580212.3334220001 0  241338.095553 580387.375355 0  241238.099828 579137.369157 0  241788.097003 577887.370889 0  241983.554649 577241.9220939999 0  242054.178239 576927.8105029999 0  242588.100699 575737.366175 0  243149.324833 574898.583978 0  243695.278626 573919.517981 0  244268.494418 573724.8454239999 0  244995.134063 573930.2767810001 0  245417.314363 573391.601898 0  243450.599125 571859.479773 0  245776.797908 572599.8353060001 0  246779.639852 572973.285167 0  248034.741935 573186.082054 0  249413.10651 573162.3205520001 0  250496.922226 573271.1521899999 0  251613.105126 573237.3551319999 0  252421.824577 572846.032906 0  253256.245022 572580.4733130001 0  253739.471933 571960.9547369999 0  254174.511864 572149.8346569999 0  254484.944333 571684.194807 0  254384.108649 570891.346712 0  254344.002752 570218.26407 0  255025.609604 570829.0294979999 0  255715.005913 570489.264586 0  256218.846343 570774.828355 0  256834.349083 570508.5908 0  257390.092515 570014.308325 0  257624.431042 568493.478911 0  259355.811717 569380.021819 0  260033.372814 569617.066669 0  262679.741751 570320.699974 0  263289.115756 569524.817815 0  263463.114338 570512.301061 0  264638.198419 570687.3443539999 0  265058.220065 571334.378467 0  265447.561421 572077.90485 0  265488.125257 573137.3446020001 0  265131.937715 573963.293593 0  265432.389648 575093.068786 0  265638.122314 576338.029955 0  265750.630817 577371.8281319999 0  265738.570663 578561.9098850001 0  265875.630866 579139.630549 0  266213.129247 579862.311842 0  266563.130472 581112.314509 0  266238.135356 582362.310259 0  265938.12863 583612.320897 0  265738.131342 584762.3210189999 0  266875.638633 585365.358768 0  264018.7239399826 593650.4646671159 0  262236.3944351029 595831.1252656333 0  241846.246678 605206.1436625 0  240200.622106 608424.8903290001 0  240943.4862974102 610939.7757535663 0  236550.6094 599787.3577085 0  238528.1212051503 608102.9081793013 0  244413.4891967989 572609.5960859474 0  236382.0474488751 598808.3067022427 0  235369.601910944 600933.5380148316 0  235413.099011 591037.3503485 0  235446.2251831186 590266.6553871984 0  240475.5921005 578037.3333535 0  240413.173949154 577324.4280286073 0  240574.037899 606283.0066440001 0  263857.9179445 593618.2891454998 0  264153.4303974913 593343.916675058 0  242042.1833925 604946.7714812499 0  241650.3099635 605465.51584375 0  244613.6985165 572229.6575395 0  236631.8579695 598822.2989335 0  235140.029068 600860.444221 0  241767.7287175 604874.0596705 0  242140.15174975 604817.0853906251 0  234781.8558075 600573.1668855001 0  242091.167571125 604881.9284359375 0  234519.3558565 600373.162719 0  254604.8337712102 583989.0014118921 0  250699.5846056537 594617.3297041012 0  250540.4796469513 602258.2940568649 0  248483.7490186612 580334.7345534252 0  258549.2190328319 577893.951823392 0  257067.0067473103 590016.5327808241 0  243285.0921999099 596333.923437875 0  248333.1386145258 589098.0389905117 0  256142.8445072741 595883.3911551933 0  260245.1368072523 583315.2785712298 0  253472.3380211276 578932.2908163272 0  246432.3347504817 599884.5019511909 0  261555.9240922556 588041.186709004 0  247293.1100123104 605823.8307887657 0  246458.2798550911 593168.8646574575 0  252840.0183145193 588226.5564648228 0  249828.2874404451 584740.7888937403 0  255409.5660975206 600458.8956828594 0  260819.9733392385 574219.403683011 0  252584.2262054711 605722.6603825617 0  254049.8830611471 592547.4852571967 0  250015.4356193061 598425.2225922942 0  245872.072249477 577604.9761853142 0  262002.1583249522 579753.4663046852 0  257732.6630933878 586227.970805314 0  250242.5556457866 577017.3316409125 0  244921.6453001869 581816.6358421432 0  256520.3890639471 580904.824006648 0  240779.0970645865 599524.6679555867 0  257100.1829219198 574459.5922545703 0  239912.2630002034 595231.1172704464 0  244703.0875078634 590068.6945953515 0  242549.5490268674 592874.3693043783 0  251586.0465921376 581796.2215047925 0  246643.189997516 596527.447801719 0  251049.7658069622 591057.6752245198 0  253014.5731561695 596998.6601086652 0  238680.2197353724 584542.2309791476 0  259715.365803504 591937.1938619445 0  254097.157218761 575731.4494927844 0  246806.6408589328 586139.0877599345 0  246136.1179750556 602959.471719323 0  253520.7033332401 602835.180253843 0  244125.4295793909 607538.9817227355 0  252546.8895354472 599881.3279113505 0  258289.0983523553 600397.640191779 0  247518.7952199645 583037.3718217331 0  263140.3959879661 582529.2228421422 0  262894.8586894067 585442.3590432997 0  256968.6320599076 593040.7691844478 0  243573.0187527719 600218.2795730785 0  258888.5766127351 595139.7745218446 0  262588.7569809347 576734.8569237856 0  259318.4257992262 580601.2540325444 0  249963.3812725965 607065.7205847671 0  257494.5307999607 583482.5893534871 0  258906.4757205145 572278.8089438241 0  237751.446593475 587300.5805003279 0  255142.4708720699 604956.7580261135 0  258485.4978753244 597756.9250383095 0  255516.7820591553 587791.39641967 0  239758.4692108706 601926.8203218657 0  255873.0092222999 577739.5085867504
[...]
<PointData  Scalars="f_24704-0"> 
<DataArray  type="Float64"  Name="f_24704-0"  format="ascii">4.4065525270085046e+06  4.5257157857319415e+06  4.6613197180856913e+06  4.7689920368786268e+06  4.8410118784062807e+06  4.9460197896406427e+06  4.9810641729793986e+06  5.0086679511170043e+06  5.0086748464573389e+06  5.0311795317549538e+06  5.0421489068027977e+06  5.0400926754572280e+06  5.0612084948536241e+06  5.2501035513833612e+06  5.3856449512860579e+06  5.5152783424384380e+06  5.7000734450435964e+06  5.9131959107364798e+06  5.9397679659303706e+06  5.9721702827341678e+06  6.1431985433817012e+06  6.2795945985087687e+06  6.4349519152634554e+06  6.5179183872678243e+06  6.5577282133308798e+06  6.6436560753793065e+06  6.6683871430307254e+06  6.7136256227191444e+06  6.8051134783497527e+06  6.8684410098687196e+06  6.8886938630151963e+06  6.9457336275492795e+06  7.0823642071167631e+06  7.1881621733991923e+06  7.2070019302229108e+06  7.2894790887928037e+06  7.3800320739845959e+06  7.4591304766928563e+06  7.5104653323717481e+06  7.5555969552813722e+06  7.6200214083210304e+06  7.6799209645083817e+06  7.7347278934533764e+06  7.7844025910639605e+06  7.8286755848657144e+06  7.8378323179573342e+06  7.8608023215922015e+06  7.8881980368124396e+06  7.9073682383334097e+06  7.9156778445809577e+06  7.9177750849482073e+06  7.9197323855328262e+06  7.9199727368619768e+06  7.9240706479398170e+06  7.9311823873371733e+06  7.9306954733968703e+06  7.9308591805372946e+06  7.9335196041156277e+06  7.9266292639811961e+06  7.9016360372407204e+06  7.8687600817472478e+06  7.8382010174562801e+06  7.7836564213627484e+06  7.6845419489691621e+06  7.6525469396749195e+06  7.7100068870660486e+06  7.7345073223053087e+06  7.7413282525226623e+06  7.7484706956877215e+06  7.7599798197468231e+06  7.7766630551479245e+06  7.8376847556404397e+06  7.8573778603922594e+06  7.8665600417447370e+06  7.8683986520964326e+06  7.8584730086300690e+06  7.8286740269362424e+06  7.7935555275955880e+06  7.7439765228307256e+06  7.7290865720796194e+06  7.7287396281482792e+06  7.7307846287154779e+06  7.7311547927290425e+06  7.7278383257845072e+06  7.7253533984857528e+06  7.7223482011627872e+06  7.7107546091219904e+06  7.6801867253148016e+06  7.6296686580988849e+06  7.6078049285787269e+06  7.6288429022690393e+06  7.6399744489394249e+06  7.6437265890459055e+06  7.6406325724860672e+06  7.6419491882007625e+06  7.6386692369493516e+06  7.6379361777027296e+06  7.6331888830562187e+06  7.6308025020220885e+06  7.6252515493564373e+06  7.5778903991044350e+06  7.5212154055805076e+06  7.4369766822549598e+06  7.3424574206870850e+06  7.2103478461092710e+06  7.0236609080153676e+06  6.7770746607682155e+06  6.4956588278888129e+06  6.2004947864041151e+06  5.9333070558427749e+06  5.5810354530426636e+06  5.4736964439105187e+06  5.5309990042306567e+06  5.7619651214363975e+06  5.9161414448734624e+06  5.9793548922669329e+06  6.0362833107836349e+06  6.1010176303673685e+06  6.1470643357766531e+06  6.1791314466058239e+06  6.1861325838011447e+06  6.1861999790297002e+06  6.1753888742633862e+06  6.1457316278213356e+06  6.1348598660422526e+06  6.1564257466171263e+06  6.1702651375775123e+06  6.1746227901537344e+06  6.1746220653513074e+06  6.1603602247449420e+06  6.0641091302979579e+06  6.0305756443181252e+06  5.9696331044083005e+06  5.9313741787681915e+06  5.8755676681037033e+06  5.8128952434957456e+06  5.7394847490801439e+06  5.6804457860900667e+06  5.6553435110684251e+06  5.6580292177140741e+06  5.6628248796572657e+06  5.6619800804715073e+06  5.6639567541917628e+06  5.6651338869802570e+06  5.6649878090315573e+06  5.6550686933095856e+06  5.6181402501165271e+06  5.4940429070245074e+06  5.1748050765874712e+06  4.8586274358859891e+06  4.6458154418052090e+06  4.5432484402500391e+06  4.5037107628454519e+06  4.3599304280628739e+06  4.2597849646720560e+06  4.1793983637514124e+06  4.1524136694129668e+06  4.0647848575468399e+06  3.9656583721666802e+06  3.9706481304729246e+06  3.9398215521955905e+06  3.8463274218884292e+06  3.6193388598344577e+06  3.3360297324183597e+06  3.1344521224354608e+06  2.9596242804859076e+06  2.8900826611703248e+06  2.8862718868524190e+06  2.9173468409701907e+06  2.9432328581439364e+06  3.0193975842017462e+06  3.0712928647345197e+06  3.0779031123024775e+06  3.0783090733169997e+06  3.1058070997246522e+06  3.1341514850245211e+06  3.2052509041610202e+06  3.2870162256043223e+06  3.3415871535899690e+06  3.3426837194107682e+06  3.3527971932330602e+06  3.4225368970752396e+06  3.4380863692543018e+06  3.4345331639009742e+06  3.4419328073763060e+06  3.4377938496296573e+06  3.4258569163117893e+06  3.3976936781559759e+06  3.3483443497680267e+06  3.2815210327030262e+06  3.2363580237099230e+06  3.2202866260757907e+06  3.2421826808881452e+06  3.2843251309853876e+06  3.3540927754810741e+06  3.4639033413527948e+06  3.6008288340574498e+06  3.8220574454674530e+06  4.1261273474303465e+06  4.3185095613476187e+06  5.0415084766340666e+06  5.9493917228512671e+06  7.8143414945342587e+06  7.9168947533573071e+06  7.9303413159215096e+06  7.6570376976824217e+06  7.8657833428979013e+06  3.9649957181710978e+06  7.6171609178747544e+06  7.6429752023991300e+06  6.1628512754881540e+06  6.1426009469370861e+06  5.6625619817107087e+06  5.6648864076284384e+06  7.8123824777717004e+06  5.0414951618656917e+06  5.0396708020453602e+06  7.7998461489245556e+06  7.8272831982267331e+06  3.9650036537100752e+06  7.6150047655498832e+06  7.6429773929530168e+06  7.7424048633627528e+06  7.7920090822671307e+06  7.6413803904009080e+06  7.7959813181783529e+06  7.6413606236152602e+06  3.6478562790906983e+06  6.3417088387217373e+06  7.2721305019663526e+06  3.9574192315836349e+06  2.1430270807829825e+06  4.5164491049448531e+06  7.2279089537814083e+06  5.6753906151854042e+06  6.0724220592528926e+06  3.4724027255883538e+06  2.8371928856617725e+06  7.3238003445645869e+06  4.4470979623403978e+06  7.6650975970695596e+06  6.5951232717239540e+06  4.4719369164057691e+06  4.6403700292011453e+06  6.7916899698529430e+06  3.0328984793184344e+06  7.4157756176506346e+06  5.4929967097028820e+06  6.9237599428838547e+06  4.1157724000763618e+06  2.8847804589627795e+06  3.7529896146927997e+06  3.2177163032841883e+06  4.7710409302402427e+06  3.0147913141209199e+06  7.5619521814709585e+06  2.7549251862219414e+06  7.3461647606002884e+06  6.3339082445383724e+06  6.9485321316497643e+06  3.8318347625033613e+06  6.9951149237674940e+06  5.6122743928806484e+06  6.4831621634536441e+06  5.8043158750215210e+06  5.1140707624300588e+06  2.5563228865282959e+06  5.3723501269144639e+06  7.5594804296973208e+06  7.1499963331653895e+06  7.8325211068255920e+06  6.9013175434140088e+06  6.6552090544557469e+06  4.6440353773576636e+06  3.5003365600286247e+06  4.0743861478773784e+06  5.3624122385531692e+06  7.4958072690184154e+06  5.8241790206175726e+06  2.9491004659089181e+06  2.8209772120800382e+06  7.6023656973490864e+06  3.4180010224618362e+06  3.1768106840522364e+06  6.0012976913190782e+06  7.2451568734563729e+06  6.2981139737190576e+06  3.9131529308628594e+06  7.6801554447311386e+06  2.3686497603952549e+06  4.8967941482767938e+06  5.3333573915587915e+06  6.2243566209316598e+06  4.6011644479850698e+06  3.3954924346840582e+06  4.5093507497162083e+06  4.7000429294390781e+06  3.4617147944025425e+06  3.6682044733411362e+06  3.9587449442226938e+06  4.3052231685679583e+06  7.7763296130722938e+06  7.4606988353175865e+06  4.0964261098911059e+06  7.7208108816274283e+06  7.2742227134649940e+06  7.2300122985818330e+06  7.5270678294143379e+06  5.6350601619094377e+06  5.1626174363573976e+06  6.4876449946896853e+06  6.9105870517805321e+06  4.9603342786188405e+06  7.4730419950471278e+06  3.8768846571456306e+06  6.0895077682667645e+06  3.3395585820253985e+06  3.7142989589396818e+06  6.6401023247235334e+06  7.4075530198301673e+06  6.1930774159493418e+06  6.9391582614812180e+06  5.8979105514395079e+06  7.1427105918119773e+06  2.4937330838337396e+06  4.2129884351505786e+06  4.2258451284477608e+06  7.4939949227065621e+06  6.6610477806180343e+06  3.2576299137929603e+06  7.4840376824355954e+06  5.8592775566275613e+06  7.6383286849463712e+06  3.2129549413408842e+06  7.8001257539023319e+06  7.7952103104828764e+06  4.4176875001569018e+06  4.9966554276465224e+06  7.7982811189761134e+06  7.8321532437044447e+06  7.5938935718129650e+06  7.6153139277041573e+06  6.1208238945497498e+06  2.9453453554259879e+06  7.5943246376753626e+06  7.2387169586665835e+06  4.4912470874729380e+06  4.9760710844858512e+06  4.7775828019726584e+06  7.8348108401053352e+06  7.7941368685160158e+06  5.5708666712082690e+06  7.7143581050960748e+06  7.7408023229086921e+06  7.7686931861362783e+06  7.8348677179295830e+06  5.2924615665003844e+06  3.8865913411421487e+06  6.1301667539037885e+06  3.1139449474748201e+06  4.8940407342554964e+06  3.2052496779077370e+06  6.0596682312461445e+06  7.9086518809398822e+06  5.9117368879587725e+06  6.1426502340503987e+06  7.5996498008267395e+06  5.4201407945465557e+06  3.3040396440778282e+06  6.1330192907491606e+06  2.7834541127306144e+06  4.1775370582561377e+06  7.6136671694631074e+06  7.5708280582925808e+06  5.6346201004833532e+06  7.9065533606815534e+06  3.2366063071363773e+06  7.6669928874504594e+06  6.2074604113100506e+06  3.4055669440295161e+06  2.9721982429292533e+06  2.7509508812626712e+06  6.8592738422701797e+06  7.6376820393631123e+06  7.5901800178784523e+06  6.5873987941613998e+06  7.8214522314541563e+06  5.8244965692494670e+06  3.9579335624302514e+06  3.9575214171531056e+06  3.2316746450964385e+06  7.7979590580695495e+06  7.8072829081818350e+06  7.8109982599886879e+06  7.2128931321292715e+06  7.5494483118688790e+06  7.7931718783953134e+06  7.7135767127262233e+06  5.9618024607505212e+06  7.9288144042354506e+06  7.9274374335975228e+06  5.4545380019998783e+06  3.1546668538739150e+06  5.6460779083162462e+06  7.6634679236558517e+06  5.3572288439757815e+06  5.7839901199351167e+06  7.9111178159961877e+06  5.6020811211132128e+06  6.9790612878488274e+06  3.8532857025513118e+06  4.5130962733054236e+06  4.4285748881602772e+06  4.6003886428337814e+06  7.6308701389174722e+06  4.9686734951156126e+06  5.0126390680343919e+06  4.9177416379156010e+06  5.0056142882351205e+06  4.8121105150136277e+06  3.4051304262227425e+06  3.3268015659449860e+06  5.0561701041781064e+06  4.3758202200212581e+06  6.1840050954444790e+06  6.1833289439417087e+06  7.9226970353865027e+06  6.6145860894382959e+06  6.2778059063763274e+06  5.5173624656082038e+06  5.3888508387776650e+06  5.4231974039390367e+06  5.4904724962225799e+06  5.4125937764830692e+06  5.4507014759109784e+06  5.6496070197775681e+06  5.4795356805714145e+06  5.5605288988075191e+06  5.7734794224906685e+06  5.6676480735953702e+06  4.9771525767678376e+06  5.2741023980159927e+06  3.4699458192979349e+06  3.6247792163241939e+06  3.4259999609974879e+06  3.2357720239831042e+06  3.2856652920335522e+06  3.0396186121380739e+06  3.1805643426575032e+06  3.0836529293613215e+06  2.8452298662176272e+06  2.8443468605397209e+06  3.2313343850982422e+06  3.2253796215533614e+06  3.2134647720798012e+06  3.2229524497086420e+06  3.2044034446183238e+06  3.2607535980969807e+06  3.2366606076621632e+06  3.2001947074541715e+06  3.3200419366980456e+06  3.2561864147762102e+06  3.3266092768577472e+06  3.2898988891678685e+06  3.3983787669604588e+06  3.5999780417639548e+06  3.4630235029448117e+06  3.5572980696378914e+06  3.3884768479752922e+06  3.4806978015794661e+06  3.7579508584174663e+06  6.6559265280290395e+06  6.4068462272842797e+06  6.2826414583962914e+06  6.4947962692320412e+06  7.0982763204368744e+06  7.3735351518359482e+06  7.2508296131207971e+06  7.3771856691944553e+06  4.2795338573151752e+06  3.7413722876778431e+06  3.8034529509835765e+06  4.0529691980807125e+06  2.4564564141154741e+06  2.5007423072828203e+06  2.3637284448959162e+06  2.4264800040313061e+06  2.2040630754905469e+06  2.2274013165686266e+06  4.8328462712731855e+06  4.9279800441782605e+06  4.1987241105393758e+06  4.5427776959326994e+06  4.3846530306580067e+06  7.2899996535363514e+06  7.0965921329385871e+06  5.6394772626853921e+06  5.5261424127726248e+06  5.9542783416957967e+06  5.3383065139113171e+06  5.9443352326061549e+06  5.7938677069344800e+06  5.7902870843446460e+06  6.2717024229221791e+06  6.0595953499532267e+06  3.1174720522759552e+06  3.4693981755508427e+06  3.7729315301246699e+06  3.1632106113712834e+06  2.9572416755098691e+06  2.9096647678359370e+06  3.3441248121243264e+06  2.5532878544737902e+06  2.5810949441689122e+06  3.1242415748418993e+06  3.1291947230637893e+06  7.1387511042615911e+06  7.4499600924581233e+06  7.2776801930746287e+06  7.4737082840636196e+06  7.6181166056577871e+06  6.8097451246582400e+06  6.4018463930598479e+06  6.7757697146385815e+06  6.6264362575893886e+06  4.1105478998023854e+06  4.5526510558508663e+06  4.7187418104745327e+06  4.1112853772018389e+06  6.9792599161584741e+06  6.8404222663770439e+06  6.7168280959047154e+06  6.6470451012282996e+06  2.8534683656469607e+06  2.9383843801160702e+06  5.5358623110357411e+06  5.3807915066618882e+06  5.1140521576383123e+06  6.9569231131456112e+06  6.7106916160766073e+06  7.0854856510337340e+06  6.7861450141579723e+06  4.3423975531410724e+06  3.9000056154549876e+06  3.9110300454125647e+06  4.1459889576343009e+06  3.9940923751941579e+06  4.1652625512052048e+06  3.1752373671070579e+06  2.8346439401790099e+06  2.7798322839693786e+06  2.5668139674903746e+06  3.0857453024482848e+06  3.0628553893716834e+06  3.5718016928294264e+06  3.7787342513974993e+06  4.0156036316244709e+06  3.6488648398095146e+06  2.7663852672588206e+06  3.3027053267026455e+06  3.4348172524884082e+06  3.4824147248782464e+06  2.8954293417464737e+06  3.2051351825432922e+06  4.6792885123211741e+06  5.0863726529543670e+06  4.6669736846828777e+06  4.4772355913515044e+06  2.8860340756271272e+06  3.2495246770495507e+06  2.6170589895775402e+06  3.1946720925184074e+06  2.6030265111372685e+06  2.9869921311758128e+06  2.4242746725014988e+06  2.5666897707154965e+06  2.8640488436340978e+06  2.9644959483507271e+06  2.7464629878353775e+06  6.2611890962571343e+06  6.1236121811792860e+06  6.5026926006249851e+06  6.4782451219616532e+06  6.9424628386324570e+06  3.5997857253922578e+06  3.6437938996126004e+06  6.8275595486185001e+06  5.9416254240337433e+06  5.1690225529432092e+06  5.2580136300332891e+06  5.7355470832533687e+06  6.7045711197591582e+06  6.4796029769239519e+06  5.7170913471914772e+06  5.7129225725295488e+06  5.2132281470137415e+06  4.7114277069181893e+06  2.4421435469081588e+06  2.6623001564094126e+06  2.6390035459094821e+06  5.2094918511685291e+06  5.6373141077173986e+06  7.4112587794349231e+06  7.5183587481297376e+06  7.0333865508646900e+06  7.3139500490904292e+06  7.0304309714160273e+06  7.0697087938276818e+06  6.6976019291857937e+06  6.5723834883936401e+06  4.3680396782168401e+06  3.3504930489468020e+06  4.9943133304393822e+06  5.4791230620454745e+06  2.7233386179362596e+06  3.0631140840184637e+06  3.0693837648921427e+06  3.1798241290429174e+06  3.6381574176343181e+06  4.2671918524977006e+06  4.0553622847323739e+06  3.8224493649722878e+06  4.6535264029838042e+06  5.2922553217576668e+06  5.3747082546268562e+06  5.3824513662109729e+06  5.4751413046375141e+06  6.2088913337048488e+06  6.0457272021058397e+06  4.4147146390620451e+06  3.7602124774152152e+06  3.5745493998775277e+06  3.8555988624705109e+06  3.6789868726785686e+06  3.4481523306358713e+06  4.1264237618671064e+06  4.4832006336815683e+06  4.0002408427497419e+06  7.3602315949858585e+06  4.3852055767536350e+06  3.9484594077998856e+06  6.0477057144659823e+06  6.4357993565243455e+06  6.8067442640988296e+06  6.6376784760015318e+06  3.2233723775257799e+06  3.1653854577109134e+06  2.8431236466315687e+06  5.3554890085479682e+06  3.1571602539100177e+06  5.5065180152357090e+06  2.9654617148280526e+06  2.7399254417033950e+06  5.5245573604896870e+06  3.6217219379949910e+06  6.5764470472541247e+06  2.2568709427128970e+06  2.2652018744322355e+06  2.1814819039830305e+06  2.1537431472220588e+06  2.2503769275120692e+06  5.8684470621775920e+06  2.8684992748195259e+06  3.0824677678298955e+06  2.9710534157302580e+06  7.3682211173469247e+06  5.0859063183285948e+06  4.2783234303908236e+06  4.2789778776355153e+06  4.4055352842858769e+06  2.8002075838152962e+06  6.7953255112067545e+06  6.8558534361852929e+06  2.9671117068032715e+06  3.0239261725093867e+06  3.6174727570938598e+06  3.6700640662417794e+06  2.9762796104194508e+06  4.5620026415184345e+06  5.6227752010797160e+06  5.7836002369378451e+06  5.4325211226400249e+06  5.8399614891298749e+06  2.6236362859894135e+06  2.5604870055814767e+06  2.6061103127672309e+06  2.5923227169625298e+06  6.8010046561034480e+06  2.6274684654483516e+06  2.8441112826034538e+06  3.0094207179269781e+06  4.0461843862394001e+06  3.9867824016510909e+06  4.0745666647280976e+06  3.9568666920660087e+06  2.4718531446168651e+06  2.3387282811192800e+06  2.3999831296232874e+06  4.1792037853443874e+06  7.1848946337264972e+06  7.2538802880869033e+06  7.3246833257373814e+06  5.6142555242544943e+06  6.5927118275437625e+06  4.1082882421643650e+06  3.7521258029677179e+06  3.6376000814700103e+06  3.8328928025274621e+06  6.3165147582326271e+06  5.8480021782821594e+06  5.9754787930038525e+06  2.3571417942588236e+06  2.3492524394301684e+06  2.4895066028015362e+06  4.1719731662787301e+06  4.3385585951410411e+06  4.2659619679513425e+06  4.0722139901984455e+06  6.5508937429518867e+06  3.1965814127098359e+06  3.1310323441097089e+06  3.1751567843916304e+06  5.4899601604636787e+06  5.4419549753327491e+06  5.4613673405560115e+06  3.0632525033204095e+06  3.2160122690335931e+06  3.3394765380676147e+06  2.6782952152728285e+06  3.1778221825175215e+06  3.1098539705202114e+06  5.5784337530725449e+06  5.6873094385579256e+06  5.6307635061875824e+06  5.5401418339833990e+06  5.5540507786919214e+06  5.5621640028253533e+06  5.5330284900531089e+06  3.4309113280958761e+06  3.1816944043541187e+06  3.5993894866142203e+06  6.7216643018470798e+06  3.9252912436076165e+06  3.8704561470359815e+06  2.2794055165693546e+06  2.3006707194320164e+06  2.5992941043005981e+06  2.6494610131564541e+06  2.3680818173053702e+06  2.2734666303409049e+06  4.2764460966050951e+06  4.1124175262911301e+06  4.2193597828147979e+06  5.7916769547069827e+06  5.9221671024948219e+06  3.1344795856842594e+06  3.3073625160006280e+06  2.7170762539107078e+06  2.8312521070388001e+06  3.2316611456865482e+06  2.6353932478593970e+06  2.5905571055423631e+06  2.4689991530236546e+06  3.3915395930714575e+06  7.3466945279824380e+06  4.1755673094596756e+06  4.3928056069708215e+06  4.2421129146692399e+06  6.7439430663939118e+06  6.7706515424637785e+06  6.6699600799270617e+06  4.0252550916730803e+06  4.2738054958797116e+06  4.0423006069584414e+06  3.3242768382418021e+06  4.4091976529880464e+06  4.4365926203338392e+06  2.4894606852303068e+06  2.6155607358865673e+06  6.3840817169822529e+06  6.3495702988231238e+06  6.4686896836546045e+06  2.6433747737132376e+06  3.1146256652579592e+06  </DataArray> 
</PointData> 
</Piece>
</UnstructuredGrid>
</VTKFile>