<?xml version="1.0"?>
<VTKFile type="UnstructuredGrid"  version="0.1"  >
<UnstructuredGrid>
<Piece  NumberOfPoints="784" NumberOfCells="1320">
<Points>
<DataArray  type="Float64"  NumberOfComponents="3"  format="ascii">266913.131276 586512.314988 0  266738.13716 587762.325998 0  266363.132677 589012.328643 0  266175.641078 590169.601714 0  265666.575631 591040.7699119999 0  264875.64001 591687.766419 0  264900.636161 591845.049083 0  266088.14152 592012.3229499999 0  265561.959259 592661.17101 0  264288.136855 593037.368683 0  263865.194033 593999.8486949999 0  263850.641856 593236.729596 0  263625.634872 592756.525286 0  262689.574249 593299.848918 0  262475.636737 594003.0907310001 0  261934.554452 594340.929792 0  261725.631329 594932.094409 0  261729.256443 595728.498809 0  262138.136044 595012.330523 0  262288.141035 596262.333669 0  261488.994028 597511.480605 0  261234.15567 598316.338928 0  260815.635063 599014.863821 0  261400.643658 599389.7367680001 0  261322.963374 600022.185065 0  261119.455248 600931.061306 0  261607.436504 601293.0629359999 0  260807.446929 602089.899812 0  260025.642878 602988.868697 0  259613.135827 603937.3854499999 0  259050.643123 604100.987861 0  258411.880065 603988.6335979999 0  257764.357469 604449.872569 0  257971.239668 605320.429125 0  258041.396867 605740.635381 0  257188.143339 606987.394312 0  256038.141198 608112.3554550001 0  254788.141633 609087.4026939999 0  253588.140656 609812.362881 0  252338.135706 609737.4048949999 0  251088.138116 609787.404055 0  249963.12851 610287.399466 0  248613.130524 610462.365857 0  247363.132198 610687.407659 0  246113.130532 610837.411551 0  245832.347438 610918.209918 0  245016.946433 610958.5639439999 0  244313.129646 610762.372259 0  244400.622144 611378.093316 0  243939.669208 612460.8930899999 0  242960.649733 611984.892792 0  242170.381438 611919.647351 0  241888.122919 611112.375656 0  241393.380757 610467.6456149999 0  240594.157528 611306.369822 0  240525.621947 610804.648112 0  240363.123632 610512.3745050001 0  239113.123247 610262.374278 0  239813.12126 609037.412459 0  240588.122952 607812.368199 0  241013.119545 606625.9534560001 0  241454.373249 605724.888025 0  242238.120107 604687.3993 0  243088.121248 603462.362766 0  242860.319451 603007.3932640001 0  241563.116617 603812.361344 0  241778.400913 604327.642217 0  242059.837234 604824.879102 0  241475.620201 604923.2402390001 0  241462.182234 605449.881372 0  240906.219606 605674.888222 0  240241.856192 606891.125066 0  239891.734044 607841.012479 0  239048.653431 608724.889805 0  238118.054545 608974.895967 0  238888.111029 607337.406468 0  239738.119992 606212.362729 0  240288.12044 605687.4075229999 0  240380.212307 604729.521696 0  239347.309632 604603.204501 0  238888.112036 604387.408787 0  237913.11173 604687.401386 0  236784.172023 604499.882783 0  236883.408793 603717.08334 0  236154.933927 603595.565605 0  235688.103943 602912.369264 0  235763.108033 601662.366516 0  236363.110805 600412.35884 0  236738.107995 599162.356577 0  236525.607944 598482.2412899999 0  236138.109208 599362.357613 0  235725.063048 600325.4466510001 0  235091.948926 601408.5220979999 0  235188.10921 600312.366344 0  234375.602405 600833.9674270001 0  234663.109308 599912.358011 0  234138.105122 600062.365644 0  233955.307245 599029.561063 0  233338.103791 598387.401556 0  233988.09795 597862.356384 0  235138.101489 596637.3947750001 0  235563.1039 595387.392428 0  236513.103639 594212.356312 0  237163.10684 592987.3929869999 0  238313.103031 591862.3515540001 0  239513.107028 590812.3512640001 0  240638.102135 589787.387271 0  241463.109549 588587.378486 0  242294.489816 587443.735215 0  242913.101099 586512.341804 0  243544.066915 585474.859604 0  243040.448415 585184.975583 0  242438.10214 585337.38015 0  241313.102353 586562.339499 0  240538.107104 587787.382449 0  240114.641085 588588.939407 0  239388.100256 589437.382238 0  238188.104456 590512.346358 0  236938.100507 591362.349798 0  235813.10453 592537.396388 0  234864.502938 593178.7753880001 0  234463.097651 592862.357267 0  235113.0965 591662.3545979999 0  235713.101522 590412.346099 0  235777.688431 589976.7582779999 0  234943.583145 590706.265132 0  234462.482256 591490.2841159999 0  233801.497784 592112.940187 0  233388.099101 591787.394208 0  234013.093099 590437.393065 0  234776.217248 587148.7548100001 0  235163.093726 586562.3486189999 0  235313.098918 585483.229012 0  235250.59732 584662.298153 0  235588.093896 583337.379493 0  236329.432041 582199.858992 0  237188.096234 581462.3349939999 0  237463.088521 580212.335511 0  238350.592558 579057.652616 0  238591.415797 578574.847681 0  238313.094106 577612.328905 0  239229.696732 577695.769664 0  240195.161018 577513.008613 0  240614.996733 577149.8518770001 0  240663.091715 577412.332622 0  240288.092486 578662.334085 0  239942.357258 579508.095811 0  240438.100019 580212.3334220001 0  241338.095553 580387.375355 0  241238.099828 579137.369157 0  241788.097003 577887.370889 0  241983.554649 577241.9220939999 0  242054.178239 576927.8105029999 0  242588.100699 575737.366175 0  243149.324833 574898.583978 0  243695.278626 573919.517981 0  244268.494418 573724.8454239999 0  244995.134063 573930.2767810001 0  245417.314363 573391.601898 0  243450.599125 571859.479773 0  245776.797908 572599.8353060001 0  246779.639852 572973.285167 0  248034.741935 573186.082054 0  249413.10651 573162.3205520001 0  250496.922226 573271.1521899999 0  251613.105126 573237.3551319999 0  252421.824577 572846.032906 0  253256.245022 572580.4733130001 0  253739.471933 571960.9547369999 0  254174.511864 572149.8346569999 0  254484.944333 571684.194807 0  254384.108649 570891.346712 0  254344.002752 570218.26407 0  255025.609604 570829.0294979999 0  255715.005913 570489.264586 0  256218.846343 570774.828355 0  256834.349083 570508.5908 0  257390.092515 570014.308325 0  257624.431042 568493.478911 0  259355.811717 569380.021819 0  260033.372814 569617.066669 0  262679.741751 570320.699974 0  263289.115756 569524.817815 0  263463.114338 570512.301061 0  264638.198419 570687.3443539999 0  265058.220065 571334.378467 0  265447.561421 572077.90485 0  265488.125257 573137.3446020001 0  265131.937715 573963.293593 0  265432.389648 575093.068786 0  265638.122314 576338.029955 0  265750.630817 577371.8281319999 0  265738.570663 578561.9098850001 0  265875.630866 579139.630549 0  266213.129247 579862.311842 0  266563.130472 581112.314509 0  266238.135356 582362.310259 0  265938.12863 583612.320897 0  265738.131342 584762.3210189999 0  266875.638633 585365.358768 0  264018.7239399826 593650.4646671159 0  262236.3944351029 595831.1252656333 0  241846.246678 605206.1436625 0  240200.622106 608424.8903290001 0  240943.4862974102 610939.7757535663 0  236550.6094 599787.3577085 0  238528.1212051503 608102.9081793013 0  244413.4891967989 572609.5960859474 0  236382.0474488751 598808.3067022427 0  235369.601910944 600933.5380148316 0  235413.099011 591037.3503485 0  235446.2251831186 590266.6553871984 0  240475.5921005 578037.3333535 0  240413.173949154 577324.4280286073 0  240574.037899 606283.0066440001 0  263857.9179445 593618.2891454998 0  264153.4303974913 593343.916675058 0  242042.1833925 604946.7714812499 0  241650.3099635 605465.51584375 0  244613.6985165 572229.6575395 0  236631.8579695 598822.2989335 0  235140.029068 600860.444221 0  241767.7287175 604874.0596705 0  242140.15174975 604817.0853906251 0  234781.8558075 600573.1668855001 0  242091.167571125 604881.9284359375 0  234519.3558565 600373.162719 0  254604.8337712102 583989.0014118921 0  250699.5846056537 594617.3297041012 0  250540.4796469513 602258.2940568649 0  248483.7490186612 580334.7345534252 0  258549.2190328319 577893.951823392 0  257067.0067473103 590016.5327808241 0  243285.0921999099 596333.923437875 0  248333.1386145258 589098.0389905117 0  256142.8445072741 595883.3911551933 0  260245.1368072523 583315.2785712298 0  253472.3380211276 578932.2908163272 0  246432.3347504817 599884.5019511909 0  261555.9240922556 588041.186709004 0  247293.1100123104 605823.8307887657 0  246458.2798550911 593168.8646574575 0  252840.0183145193 588226.5564648228 0  249828.2874404451 584740.7888937403 0  255409.5660975206 600458.8956828594 0  260819.9733392385 574219.403683011 0  252584.2262054711 605722.6603825617 0  254049.8830611471 592547.4852571967 0  250015.4356193061 598425.2225922942 0  245872.072249477 577604.9761853142 0  262002.1583249522 579753.4663046852 0  257732.6630933878 586227.970805314 0  250242.5556457866 577017.3316409125 0  244921.6453001869 581816.6358421432 0  256520.3890639471 580904.824006648 0  240779.0970645865 599524.6679555867 0  257100.1829219198 574459.5922545703 0  239912.2630002034 595231.1172704464 0  244703.0875078634 590068.6945953515 0  242549.5490268674 592874.3693043783 0  251586.0465921376 581796.2215047925 0  246643.189997516 596527.447801719 0  251049.7658069622 591057.6752245198 0  253014.5731561695 596998.6601086652 0  238680.2197353724 584542.2309791476 0  259715.365803504 591937.1938619445 0  254097.157218761 575731.4494927844 0  246806.6408589328 586139.0877599345 0  246136.1179750556 602959.471719323 0  253520.7033332401 602835.180253843 0  244125.4295793909 607538.9817227355 0  252546.8895354472 599881.3279113505 0  258289.0983523553 600397.640191779 0  247518.7952199645 583037.3718217331 0  263140.3959879661 582529.2228421422 0  262894.8586894067 585442.3590432997 0  256968.6320599076 593040.7691844478 0  243573.0187527719 600218.2795730785 0  258888.5766127351 595139.7745218446 0  262588.7569809347 576734.8569237856 0  259318.4257992262 580601.2540325444 0  249963.3812725965 607065.7205847671 0  257494.5307999607 583482.5893534871 0  258906.4757205145 572278.8089438241 0  237751.446593475 587300.5805003279 0  255142.4708720699 604956.7580261135 0  258485.4978753244 597756.9250383095 0  255516.7820591553 587791.39641967 0  239758.4692108706 601926.8203218657 0  255873.0092222999 577739.5085867504
[...]
<PointData  Scalars="f_32-0"> 
<DataArray  type="Float64"  Name="f_32-0"  format="ascii">9.4787626665753089e+06  9.5177619270695504e+06  9.5638484086193759e+06  9.6025301660894286e+06  9.6290092300454453e+06  9.6691820964461453e+06  9.6836904200531840e+06  9.6963093503457848e+06  9.6960244227079842e+06  9.7032923219704628e+06  9.7082292962341830e+06  9.7067834958384242e+06  9.7127928034436405e+06  9.7873970249673110e+06  9.8472487914375085e+06  9.9073640979793519e+06  9.9984863296679258e+06  1.0111172664109612e+07  1.0126927962599365e+07  1.0143498152832074e+07  1.0234611304238513e+07  1.0309753140749265e+07  1.0399533814796109e+07  1.0451376223225893e+07  1.0476083148599003e+07  1.0530055157829830e+07  1.0546183772762746e+07  1.0572742753875345e+07  1.0627633728727892e+07  1.0666583173148682e+07  1.0678261902558671e+07  1.0711304203753972e+07  1.0799361039398987e+07  1.0873897129299298e+07  1.0887483546644162e+07  1.0945103419200495e+07  1.1007151764933517e+07  1.1061281546711706e+07  1.1096122925841095e+07  1.1126024362969676e+07  1.1170044708563106e+07  1.1212903482913908e+07  1.1253582913368523e+07  1.1291900776138103e+07  1.1327432502470748e+07  1.1334962728654647e+07  1.1354104909969820e+07  1.1377536073751530e+07  1.1394535640664475e+07  1.1401997448533954e+07  1.1403668063678093e+07  1.1405240937110560e+07  1.1405067173885701e+07  1.1408053986280704e+07  1.1414390540597599e+07  1.1413910801724302e+07  1.1413966679753462e+07  1.1416306004688783e+07  1.1409618022386305e+07  1.1385057990516456e+07  1.1352291650569793e+07  1.1321566703735122e+07  1.1266001026245231e+07  1.1162088940007284e+07  1.1129582466801627e+07  1.1194211748330653e+07  1.1220265224035524e+07  1.1227464309187567e+07  1.1234998140353017e+07  1.1247085560082406e+07  1.1264536401754523e+07  1.1328399057808930e+07  1.1349063255452318e+07  1.1358715971535545e+07  1.1360650342600849e+07  1.1350215208499761e+07  1.1318953231862569e+07  1.1282200958270805e+07  1.1230713068773374e+07  1.1216273290033100e+07  1.1216531997646933e+07  1.1219525193530342e+07  1.1220278943352614e+07  1.1217156860084411e+07  1.1214992846293712e+07  1.1212116119479883e+07  1.1200601913052570e+07  1.1170096415275512e+07  1.1120956376982719e+07  1.1102928098063743e+07  1.1128890852979541e+07  1.1141743419675734e+07  1.1146013767741976e+07  1.1142515550138256e+07  1.1144042930428356e+07  1.1140371319571961e+07  1.1139599916318478e+07  1.1134390852499848e+07  1.1131810369910724e+07  1.1125684375597775e+07  1.1074413113965474e+07  1.1014866208595695e+07  1.0927811572930025e+07  1.0831474842523482e+07  1.0698567858176282e+07  1.0514518558373014e+07  1.0285887679458462e+07  1.0050965713747831e+07  9.8575562052574363e+06  9.7383851231653690e+06  9.6876016512584537e+06  9.7758533593818285e+06  9.9086996422584932e+06  1.0165177700348675e+07  1.0317748691151699e+07  1.0378847405345563e+07  1.0432967180604339e+07  1.0493096784988666e+07  1.0534839280086419e+07  1.0563584693372663e+07  1.0569852693014951e+07  1.0569913118392851e+07  1.0560238515593808e+07  1.0533879162876459e+07  1.0524462418144280e+07  1.0544059188752351e+07  1.0556421738410164e+07  1.0560311282068726e+07  1.0560310719486555e+07  1.0547588592509594e+07  1.0463318555334998e+07  1.0434436078877229e+07  1.0383142043384476e+07  1.0351685692497013e+07  1.0306444273021270e+07  1.0256576256768914e+07  1.0200169015534727e+07  1.0158695738380032e+07  1.0144017818813389e+07  1.0148135311211864e+07  1.0153144050859291e+07  1.0152523973187974e+07  1.0154568658306194e+07  1.0155664807154069e+07  1.0155529582322082e+07  1.0146575700816786e+07  1.0114586386939105e+07  1.0016587589328520e+07  9.7970618687044345e+06  9.6246750651888754e+06  9.5238227597149946e+06  9.4803031049629543e+06  9.4644134136576671e+06  9.4090863710075449e+06  9.3720655595194921e+06  9.3431350132158082e+06  9.3321219180169143e+06  9.2955906405513454e+06  9.2618833879998028e+06  9.2799320152166821e+06  9.2554562803531419e+06  9.2066864211308695e+06  9.1024612406827193e+06  8.9898555907433610e+06  8.9262593900843561e+06  8.8907114022404850e+06  8.8896966927001122e+06  8.9068433488860447e+06  8.9268874257471785e+06  8.9397707805838715e+06  8.9715519790922720e+06  8.9906562794009894e+06  8.9927443815888166e+06  8.9941831380786933e+06  9.0058043551163226e+06  9.0175621441027950e+06  9.0435049546069726e+06  9.0700917231818903e+06  9.0869867636438087e+06  9.0942675253894366e+06  9.1034661591238249e+06  9.1442924612699747e+06  9.1497390795314778e+06  9.1506834009654131e+06  9.1568380663318522e+06  9.1575869680870511e+06  9.1573626867532060e+06  9.1548968812655509e+06  9.1500679785020053e+06  9.1455914241883587e+06  9.1438633953282163e+06  9.1442557410690039e+06  9.1499495955481548e+06  9.1600140788780916e+06  9.1785958919425718e+06  9.2082237543597743e+06  9.2421673634573985e+06  9.3004206601022948e+06  9.3892405051707402e+06  9.4507066986199766e+06  9.7078364202688895e+06  1.0131515225598292e+07  1.1297401911901454e+07  1.1400090604285194e+07  1.1413614250173377e+07  1.1147255318322901e+07  1.1357899030775314e+07  9.2746125037574880e+06  1.1115054649650175e+07  1.1145160745660484e+07  1.0549051518272595e+07  1.0531630982912242e+07  1.0153308537159245e+07  1.0155435663635725e+07  1.1301894354642699e+07  9.7078331513053216e+06  9.7067899877664018e+06  1.1282616468276629e+07  1.1310534454801284e+07  9.2746168171666842e+06  1.1107591476377580e+07  1.1145163080326926e+07  1.1228604638071956e+07  1.1274587099008555e+07  1.1143397178446760e+07  1.1278660100711282e+07  1.1143375538613584e+07  8.9679908808678463e+06  9.9642217016823832e+06  1.0791084084690914e+07  9.0353706744052432e+06  8.8897708818425871e+06  9.1888400079343766e+06  1.0693778210871782e+07  9.4194486316778269e+06  1.0071302493187694e+07  9.1068229804970734e+06  8.8205349244563859e+06  1.0725923288166612e+07  9.4258454824283607e+06  1.1167977367740473e+07  1.0030722466211719e+07  9.0247928030077424e+06  9.2489405386532862e+06  1.0451382164551282e+07  9.0678144159375019e+06  1.1007591874766625e+07  9.6229831620279327e+06  1.0359533521393042e+07  9.2118537184531968e+06  8.9811137689447980e+06  8.9671754617016148e+06  8.8685650071023740e+06  9.4312415946729798e+06  8.9718106426918041e+06  1.1042858640149320e+07  8.9484561489921976e+06  1.0828092706595600e+07  9.7775672800143659e+06  1.0403590759723958e+07  9.0647286228311509e+06  1.0445332357038906e+07  9.4449118859753367e+06  1.0157002134281425e+07  1.0231292422876816e+07  9.6622823131118249e+06  8.7884259165154807e+06  9.4399909164190944e+06  1.1015538872594569e+07  1.0768709708947897e+07  1.1321385177780755e+07  1.0460400028678579e+07  1.0495143388773508e+07  9.2896434682583697e+06  9.1482647089760713e+06  9.3435196666227560e+06  9.6918641360105686e+06  1.0960301589381972e+07  1.0025878254207481e+07  9.0761490527388137e+06  8.9719934582122080e+06  1.1142851407324919e+07  9.0097244767255485e+06  9.0613753679653928e+06  1.0403833481970999e+07  1.0897922666610774e+07  1.0279412757897059e+07  8.8511302967911940e+06  1.1165601137953363e+07  8.8378049163957201e+06  9.6207575136239883e+06  9.8266508649673127e+06  9.7919126144223120e+06  9.4426032578313071e+06  8.9868235394379497e+06  9.5007319389780853e+06  9.1864794755761661e+06  8.9351943131266758e+06  9.0689451673995797e+06  9.2328593620249834e+06  9.2142849013921097e+06  1.1278973030416094e+07  1.1005861099219888e+07  9.0913296418355405e+06  1.1205667845130274e+07  1.0726685084029276e+07  1.0631913180861717e+07  1.1013638228947531e+07  1.0105741264896009e+07  9.5135876527238712e+06  1.0222849991058314e+07  1.0648293325080667e+07  9.2390797937591337e+06  1.0951917409568027e+07  8.8932709868056718e+06  9.9361231891429499e+06  9.1328045320066605e+06  8.9916632871750165e+06  1.0131184024901353e+07  1.0884937288805664e+07  9.6532818416605238e+06  1.0381471808551315e+07  9.5903320250243172e+06  1.0625056347479552e+07  8.9757854979532454e+06  9.1538182329732310e+06  9.1557008241711184e+06  1.0984638698493995e+07  1.0062376950831100e+07  9.1135334107728321e+06  1.1073440913507268e+07  9.7097498733671419e+06  1.1125719977110622e+07  9.1228600081500001e+06  1.1284934686408842e+07  1.1278387417833569e+07  9.4021960699187685e+06  9.6871215492012016e+06  1.1281142453079466e+07  1.1328343516213331e+07  1.1083510256865213e+07  1.1114320346428908e+07  1.0512655796673480e+07  8.9619994830263034e+06  1.1059030573548293e+07  1.0907312563788388e+07  9.4525849726547860e+06  9.6804821540587079e+06  9.5971601538792122e+06  1.1318593526192022e+07  1.1276803977668596e+07  9.9170341224882416e+06  1.1200818141277170e+07  1.1221497998213811e+07  1.1250756309792561e+07  1.1332052665273584e+07  9.6522844618933331e+06  9.2043901735847555e+06  1.0519762726732571e+07  9.0229582342231553e+06  9.6447250568386689e+06  9.1282413634495940e+06  1.0458438227998184e+07  1.1392747051427839e+07  1.0331829387536360e+07  1.0531870294574499e+07  1.1091480545484260e+07  9.8329690808906537e+06  9.0879823986716028e+06  1.0523243558537783e+07  8.8349009601540267e+06  9.3372014951055907e+06  1.1111737219314285e+07  1.1065612749599550e+07  1.0121288773992974e+07  1.1392399239260597e+07  8.9217911178155020e+06  1.1156232500361053e+07  1.0260006063974408e+07  9.1517213393577598e+06  8.9585069037406109e+06  8.8763874180268366e+06  1.0656832397587286e+07  1.1110726479318092e+07  1.1062209828465354e+07  1.0485034080598539e+07  1.1304776199880557e+07  1.0055266650403129e+07  9.2674616061201040e+06  9.2676139229503702e+06  9.0583338259615358e+06  1.1280695789599674e+07  1.1290212475541400e+07  1.1294057462284731e+07  1.0890890639055777e+07  1.1039838274664372e+07  1.1297164656966591e+07  1.1233053706464659e+07  1.0363552850827221e+07  1.1412166965611223e+07  1.1410560446105016e+07  9.9702934236285444e+06  9.1253207684282735e+06  1.0137458422865201e+07  1.1139286449037332e+07  9.8303993376255613e+06  1.0228157718348829e+07  1.1397677917426985e+07  1.0044119873954471e+07  1.0721273361723829e+07  9.2941674868728183e+06  9.4665480455399528e+06  9.4349790633489750e+06  9.4993500883637927e+06  1.1131489537291557e+07  9.6780996003773604e+06  9.6968516274257936e+06  9.6567426991929561e+06  9.6934352895952817e+06  9.6166001295272615e+06  9.1434926601569932e+06  9.1128660573424529e+06  9.7014317564408612e+06  9.4094775053730756e+06  1.0567947339792974e+07  1.0567342055428121e+07  1.1406348929242985e+07  1.0104363592616452e+07  9.8449224270160068e+06  9.5661091149675678e+06  9.6173150931014568e+06  9.6866372108316887e+06  9.8410563430465963e+06  9.7131860845887084e+06  9.8160249999064133e+06  1.0049624642836839e+07  9.8603545324930772e+06  9.9765161835666969e+06  1.0186884506493580e+07  1.0079837705280790e+07  9.6300071062978394e+06  9.8322100501810778e+06  9.0401327964008208e+06  9.0884490041729696e+06  9.0128541315868050e+06  8.9559160532035585e+06  8.9619231485206410e+06  8.9036926230116859e+06  8.9274917811063379e+06  8.9017548829501439e+06  8.8782587797289845e+06  8.8969639311403949e+06  9.1401200769466069e+06  9.1437891603805758e+06  9.1394415089134183e+06  9.1455748770568427e+06  9.1391175427695867e+06  9.1542429568506777e+06  9.1454493127139583e+06  9.1385327109339926e+06  9.1693685299393833e+06  9.1496361136335451e+06  9.1619214668752849e+06  9.1582656117813438e+06  9.1813461753454395e+06  9.2232391503749620e+06  9.1945252720970735e+06  8.8868101904759035e+06  8.9926428008353524e+06  8.9604643291274831e+06  8.9272228679663502e+06  1.0143155995469874e+07  1.0055303014748955e+07  9.8851350934513938e+06  1.0033229829941012e+07  1.0637275117895601e+07  1.0909414444100384e+07  1.0710601534251351e+07  1.0868601411985889e+07  9.1517851757107023e+06  8.9947707779768240e+06  8.9886928737936262e+06  9.0602226982357651e+06  8.9406148743833844e+06  8.9156191432991028e+06  8.9051623210534118e+06  8.9256285868952200e+06  8.8644141267670151e+06  8.9206369670600221e+06  9.4459573054727949e+06  9.4330570764505621e+06  8.9847413022313602e+06  9.1512278295539748e+06  9.1707084489099886e+06  1.0763841517172987e+07  1.0555772741255561e+07  9.4066570261809453e+06  9.3988285997578632e+06  9.5571515074691046e+06  9.3322566420671195e+06  9.5180286356612891e+06  9.4534495317211244e+06  9.8651627212801650e+06  1.0108531821676899e+07  9.9985924907488860e+06  8.9966719932749383e+06  9.1146643361914605e+06  9.2217789558113702e+06  9.0262226095276251e+06  8.7930726385643650e+06  8.9092494486941565e+06  8.9414614865394924e+06  8.7552322682357635e+06  8.8173149159208592e+06  8.9159177725547459e+06  8.8599483932322022e+06  1.0528689423690226e+07  1.0867642408413103e+07  1.0658071583221883e+07  1.0907893829175292e+07  1.1101730457368428e+07  1.0267817476341739e+07  9.8316313434445728e+06  1.0205866937968599e+07  1.0030552060166143e+07  8.9046040485472716e+06  9.0751283257734235e+06  9.1259317314473577e+06  8.9215266126339640e+06  1.0611223423388124e+07  1.0434871796431612e+07  1.0474051020946125e+07  1.0319529000611991e+07  9.0086039425996598e+06  9.0657966653357763e+06  9.5325322197622247e+06  9.6347659121118914e+06  9.4070397576468531e+06  1.0375369861644233e+07  1.0238192793645695e+07  1.0503324719924141e+07  1.0226561723874778e+07  9.3087627858854905e+06  9.1404780741763730e+06  9.0865684552785214e+06  9.1684469239452668e+06  9.2131320234466754e+06  9.3003175676555559e+06  9.0258724960409869e+06  9.0313760570795909e+06  8.9508123081001192e+06  8.9791990691254586e+06  9.0391688572902046e+06  9.0590222709035389e+06  8.9834748495314494e+06  8.8617978641214166e+06  9.0657173027364090e+06  8.8291914360071290e+06  8.7627118514537495e+06  8.8810725669341385e+06  8.9535493683510702e+06  8.9363859206342399e+06  8.8074902359437961e+06  8.8860516436923165e+06  9.3308183750336226e+06  9.6421116612854730e+06  9.4272988859636206e+06  9.2799230653100107e+06  8.9780727391586266e+06  9.0053439392776415e+06  8.8972687406144794e+06  8.9729381724995505e+06  8.8669914196239822e+06  9.0125530187774021e+06  8.8696997750573717e+06  8.9578154768794924e+06  8.9546427185912244e+06  8.9901776246698033e+06  8.9092836380274836e+06  9.6842540881172605e+06  9.6608977389488276e+06  9.9068312147026733e+06  9.9455760072890390e+06  1.0385191765365046e+07  9.0167003490217924e+06  9.0042209283378627e+06  1.0287450060031107e+07  9.6085405521789305e+06  9.3334290588694476e+06  9.2762217331207898e+06  9.5737045966564640e+06  1.0290574302315151e+07  1.0189427629568696e+07  1.0162837942728151e+07  1.0146406216059607e+07  9.6634343755821530e+06  9.4317872177367359e+06  8.8015287280892730e+06  8.8027763307490237e+06  8.8305169181133881e+06  9.3494084070574231e+06  9.4961973002247289e+06  1.0821010517291604e+07  1.0976744126404366e+07  1.0620969393400921e+07  1.0894842970564215e+07  1.0699043381338328e+07  1.0557951667874193e+07  1.0307170319962248e+07  1.0357119296808299e+07  9.1876133123154026e+06  9.1132149806777760e+06  9.4125715829551183e+06  9.8247847634607907e+06  9.0267212049862724e+06  9.0969436918600183e+06  9.1038404671641104e+06  9.0244445033027995e+06  9.0915550660682805e+06  8.9835539579178896e+06  8.9715428285095692e+06  8.8321655253864788e+06  9.4640992548950762e+06  9.7384855336895250e+06  9.8289559499511141e+06  9.8959855605936907e+06  9.9361488973534033e+06  9.7206782696261425e+06  9.7301110836126022e+06  9.2992265737577025e+06  9.0424664699654710e+06  8.9441249637945499e+06  9.0476746998920478e+06  9.0276588790212292e+06  8.9882451386162341e+06  9.2222606606472973e+06  9.1448891803420577e+06  9.0037338964622729e+06  1.0794705520377779e+07  9.0469495347036067e+06  9.0468634303721376e+06  9.5576681768603176e+06  9.8300334232329540e+06  1.0228079245568609e+07  1.0073037905037913e+07  9.1200902536741085e+06  9.1223470503011085e+06  8.9203758520807978e+06  9.7388814932963382e+06  9.1239314438773226e+06  9.9423640150509514e+06  8.8554717594244443e+06  8.8480684549634159e+06  1.0001065484443488e+07  8.8867806100695357e+06  1.0088712101516636e+07  8.9152870002020728e+06  8.8936518105470873e+06  8.8884234861250352e+06  8.8761565429134611e+06  8.9087249006534368e+06  9.4725506006584764e+06  8.7917978657189105e+06  8.8758110620590188e+06  8.8320557148565408e+06  1.0760781661391241e+07  9.2373128586909156e+06  8.9596613427644018e+06  8.9647580937748775e+06  9.0184038381925225e+06  9.0147406725976318e+06  1.0244801806390349e+07  1.0283226871806353e+07  8.9672224283978827e+06  8.9925129921051711e+06  8.9035626330345068e+06  8.8750522669943366e+06  8.8046947059504241e+06  9.2964779527527075e+06  9.4125842196469195e+06  9.5229082274499796e+06  9.3400368235068563e+06  9.5843309433386736e+06  8.7596463920699414e+06  8.8255351979546379e+06  8.7925202367320452e+06  8.8085790636084843e+06  1.0378844628076490e+07  8.9489992158586178e+06  8.9774578049195465e+06  9.0019013478074055e+06  8.9063342484944873e+06  8.8672238933433946e+06  8.9046227469406277e+06  8.8895508926409855e+06  8.8270881419791412e+06  8.8442569253588002e+06  8.8189528284616787e+06  9.0875612123084404e+06  1.0574074954323765e+07  1.0638534176152311e+07  1.0721299536124570e+07  1.0073769798347423e+07  1.0255222300465969e+07  8.9590963321020640e+06  8.9849169566385895e+06  8.9595319334230963e+06  9.0163964538501762e+06  9.7337109546869490e+06  9.5081495301197115e+06  9.5612303532968741e+06  8.9476555820439048e+06  8.9464787353509851e+06  8.9621349405922759e+06  9.1552786330592353e+06  9.2113972360031996e+06  9.1541791818417255e+06  9.0911427046594191e+06  9.9418290525013376e+06  9.1342874313929360e+06  9.1102724018434100e+06  9.1249373099075444e+06  9.9037257705337778e+06  9.8850148244586624e+06  9.8885559788872004e+06  8.8607149705991168e+06  8.9022318394994177e+06  8.9523571657236181e+06  8.8682441506086383e+06  9.1320065186311603e+06  9.1132055033534002e+06  1.0009498761076936e+07  1.0111413967112586e+07  1.0056194992281506e+07  9.9904531103230529e+06  9.9943729944029488e+06  1.0020333919124791e+07  9.9579505902905669e+06  8.9998962421017233e+06  9.1324325159213059e+06  8.8546720287756585e+06  1.0179705113717074e+07  9.0184507668738402e+06  9.0104683909164406e+06  8.9274081041009631e+06  8.8829628014822714e+06  8.9439981094235759e+06  8.9497052333937548e+06  8.8730430893820599e+06  8.8611887637572065e+06  9.0608727232173532e+06  8.9647969490627293e+06  9.0638743925994560e+06  9.4909132612920813e+06  9.4986638952277768e+06  9.0003447732991353e+06  9.0570303100660760e+06  8.7506325002950598e+06  8.7628822185386065e+06  8.9005717529980056e+06  8.7405290183552653e+06  8.8609526425332017e+06  8.7991694576418735e+06  8.9340028788219281e+06  1.0735269364611654e+07  8.9340290163762458e+06  9.0236615211617462e+06  8.9802310109497327e+06  1.0365707600286108e+07  1.0366753996764243e+07  1.0305058229394965e+07  9.1218760942698922e+06  9.2269429141569287e+06  9.1011387396626472e+06  8.9335552060335204e+06  9.2214368305059802e+06  9.2830986229826473e+06  8.8281091946584396e+06  8.8461737134198211e+06  9.7881668136930559e+06  9.7527266931382902e+06  9.8612368624347020e+06  8.8146248865249380e+06  9.1112957704778071e+06  </DataArray> 
</PointData> 
</Piece>
</UnstructuredGrid>
</VTKFile>