<?xml version="1.0"?>
<VTKFile type="UnstructuredGrid"  version="0.1"  >
<UnstructuredGrid>
<Piece  NumberOfPoints="784" NumberOfCells="1320">
<Points>
<DataArray  type="Float64"  NumberOfComponents="3"  format="ascii">266913.131276 586512.314988 0  266738.13716 587762.325998 0  266363.132677 589012.328643 0  266175.641078 590169.601714 0  265666.575631 591040.7699119999 0  264875.64001 591687.766419 0  264900.636161 591845.049083 0  266088.14152 592012.3229499999 0  265561.959259 592661.17101 0  264288.136855 593037.368683 0  263865.194033 593999.8486949999 0  263850.641856 593236.729596 0  263625.634872 592756.525286 0  262689.574249 593299.848918 0  262475.636737 594003.0907310001 0  261934.554452 594340.929792 0  261725.631329 594932.094409 0  261729.256443 595728.498809 0  262138.136044 595012.330523 0  262288.141035 596262.333669 0  261488.994028 597511.480605 0  261234.15567 598316.338928 0  260815.635063 599014.863821 0  261400.643658 599389.7367680001 0  261322.963374 600022.185065 0  261119.455248 600931.061306 0  261607.436504 601293.0629359999 0  260807.446929 602089.899812 0  260025.642878 602988.868697 0  259613.135827 603937.3854499999 0  259050.643123 604100.987861 0  258411.880065 603988.6335979999 0  257764.357469 604449.872569 0  257971.239668 605320.429125 0  258041.396867 605740.635381 0  257188.143339 606987.394312 0  256038.141198 608112.3554550001 0  254788.141633 609087.4026939999 0  253588.140656 609812.362881 0  252338.135706 609737.4048949999 0  251088.138116 609787.404055 0  249963.12851 610287.399466 0  248613.130524 610462.365857 0  247363.132198 610687.407659 0  246113.130532 610837.411551 0  245832.347438 610918.209918 0  245016.946433 610958.5639439999 0  244313.129646 610762.372259 0  244400.622144 611378.093316 0  243939.669208 612460.8930899999 0  242960.649733 611984.892792 0  242170.381438 611919.647351 0  241888.122919 611112.375656 0  241393.380757 610467.6456149999 0  240594.157528 611306.369822 0  240525.621947 610804.648112 0  240363.123632 610512.3745050001 0  239113.123247 610262.374278 0  239813.12126 609037.412459 0  240588.122952 607812.368199 0  241013.119545 606625.9534560001 0  241454.373249 605724.888025 0  242238.120107 604687.3993 0  243088.121248 603462.362766 0  242860.319451 603007.3932640001 0  241563.116617 603812.361344 0  241778.400913 604327.642217 0  242059.837234 604824.879102 0  241475.620201 604923.2402390001 0  241462.182234 605449.881372 0  240906.219606 605674.888222 0  240241.856192 606891.125066 0  239891.734044 607841.012479 0  239048.653431 608724.889805 0  238118.054545 608974.895967 0  238888.111029 607337.406468 0  239738.119992 606212.362729 0  240288.12044 605687.4075229999 0  240380.212307 604729.521696 0  239347.309632 604603.204501 0  238888.112036 604387.408787 0  237913.11173 604687.401386 0  236784.172023 604499.882783 0  236883.408793 603717.08334 0  236154.933927 603595.565605 0  235688.103943 602912.369264 0  235763.108033 601662.366516 0  236363.110805 600412.35884 0  236738.107995 599162.356577 0  236525.607944 598482.2412899999 0  236138.109208 599362.357613 0  235725.063048 600325.4466510001 0  235091.948926 601408.5220979999 0  235188.10921 600312.366344 0  234375.602405 600833.9674270001 0  234663.109308 599912.358011 0  234138.105122 600062.365644 0  233955.307245 599029.561063 0  233338.103791 598387.401556 0  233988.09795 597862.356384 0  235138.101489 596637.3947750001 0  235563.1039 595387.392428 0  236513.103639 594212.356312 0  237163.10684 592987.3929869999 0  238313.103031 591862.3515540001 0  239513.107028 590812.3512640001 0  240638.102135 589787.387271 0  241463.109549 588587.378486 0  242294.489816 587443.735215 0  242913.101099 586512.341804 0  243544.066915 585474.859604 0  243040.448415 585184.975583 0  242438.10214 585337.38015 0  241313.102353 586562.339499 0  240538.107104 587787.382449 0  240114.641085 588588.939407 0  239388.100256 589437.382238 0  238188.104456 590512.346358 0  236938.100507 591362.349798 0  235813.10453 592537.396388 0  234864.502938 593178.7753880001 0  234463.097651 592862.357267 0  235113.0965 591662.3545979999 0  235713.101522 590412.346099 0  235777.688431 589976.7582779999 0  234943.583145 590706.265132 0  234462.482256 591490.2841159999 0  233801.497784 592112.940187 0  233388.099101 591787.394208 0  234013.093099 590437.393065 0  234776.217248 587148.7548100001 0  235163.093726 586562.3486189999 0  235313.098918 585483.229012 0  235250.59732 584662.298153 0  235588.093896 583337.379493 0  236329.432041 582199.858992 0  237188.096234 581462.3349939999 0  237463.088521 580212.335511 0  238350.592558 579057.652616 0  238591.415797 578574.847681 0  238313.094106 577612.328905 0  239229.696732 577695.769664 0  240195.161018 577513.008613 0  240614.996733 577149.8518770001 0  240663.091715 577412.332622 0  240288.092486 578662.334085 0  239942.357258 579508.095811 0  240438.100019 580212.3334220001 0  241338.095553 580387.375355 0  241238.099828 579137.369157 0  241788.097003 577887.370889 0  241983.554649 577241.9220939999 0  242054.178239 576927.8105029999 0  242588.100699 575737.366175 0  243149.324833 574898.583978 0  243695.278626 573919.517981 0  244268.494418 573724.8454239999 0  244995.134063 573930.2767810001 0  245417.314363 573391.601898 0  243450.599125 571859.479773 0  245776.797908 572599.8353060001 0  246779.639852 572973.285167 0  248034.741935 573186.082054 0  249413.10651 573162.3205520001 0  250496.922226 573271.1521899999 0  251613.105126 573237.3551319999 0  252421.824577 572846.032906 0  253256.245022 572580.4733130001 0  253739.471933 571960.9547369999 0  254174.511864 572149.8346569999 0  254484.944333 571684.194807 0  254384.108649 570891.346712 0  254344.002752 570218.26407 0  255025.609604 570829.0294979999 0  255715.005913 570489.264586 0  256218.846343 570774.828355 0  256834.349083 570508.5908 0  257390.092515 570014.308325 0  257624.431042 568493.478911 0  259355.811717 569380.021819 0  260033.372814 569617.066669 0  262679.741751 570320.699974 0  263289.115756 569524.817815 0  263463.114338 570512.301061 0  264638.198419 570687.3443539999 0  265058.220065 571334.378467 0  265447.561421 572077.90485 0  265488.125257 573137.3446020001 0  265131.937715 573963.293593 0  265432.389648 575093.068786 0  265638.122314 576338.029955 0  265750.630817 577371.8281319999 0  265738.570663 578561.9098850001 0  265875.630866 579139.630549 0  266213.129247 579862.311842 0  266563.130472 581112.314509 0  266238.135356 582362.310259 0  265938.12863 583612.320897 0  265738.131342 584762.3210189999 0  266875.638633 585365.358768 0  264018.7239399826 593650.4646671159 0  262236.3944351029 595831.1252656333 0  241846.246678 605206.1436625 0  240200.622106 608424.8903290001 0  240943.4862974102 610939.7757535663 0  236550.6094 599787.3577085 0  238528.1212051503 608102.9081793013 0  244413.4891967989 572609.5960859474 0  236382.0474488751 598808.3067022427 0  235369.601910944 600933.5380148316 0  235413.099011 591037.3503485 0  235446.2251831186 590266.6553871984 0  240475.5921005 578037.3333535 0  240413.173949154 577324.4280286073 0  240574.037899 606283.0066440001 0  263857.9179445 593618.2891454998 0  264153.4303974913 593343.916675058 0  242042.1833925 604946.7714812499 0  241650.3099635 605465.51584375 0  244613.6985165 572229.6575395 0  236631.8579695 598822.2989335 0  235140.029068 600860.444221 0  241767.7287175 604874.0596705 0  242140.15174975 604817.0853906251 0  234781.8558075 600573.1668855001 0  242091.167571125 604881.9284359375 0  234519.3558565 600373.162719 0  254604.8337712102 583989.0014118921 0  250699.5846056537 594617.3297041012 0  250540.4796469513 602258.2940568649 0  248483.7490186612 580334.7345534252 0  258549.2190328319 577893.951823392 0  257067.0067473103 590016.5327808241 0  243285.0921999099 596333.923437875 0  248333.1386145258 589098.0389905117 0  256142.8445072741 595883.3911551933 0  260245.1368072523 583315.2785712298 0  253472.3380211276 578932.2908163272 0  246432.3347504817 599884.5019511909 0  261555.9240922556 588041.186709004 0  247293.1100123104 605823.8307887657 0  246458.2798550911 593168.8646574575 0  252840.0183145193 588226.5564648228 0  249828.2874404451 584740.7888937403 0  255409.5660975206 600458.8956828594 0  260819.9733392385 574219.403683011 0  252584.2262054711 605722.6603825617 0  254049.8830611471 592547.4852571967 0  250015.4356193061 598425.2225922942 0  245872.072249477 577604.9761853142 0  262002.1583249522 579753.4663046852 0  257732.6630933878 586227.970805314 0  250242.5556457866 577017.3316409125 0  244921.6453001869 581816.6358421432 0  256520.3890639471 580904.824006648 0  240779.0970645865 599524.6679555867 0  257100.1829219198 574459.5922545703 0  239912.2630002034 595231.1172704464 0  244703.0875078634 590068.6945953515 0  242549.5490268674 592874.3693043783 0  251586.0465921376 581796.2215047925 0  246643.189997516 596527.447801719 0  251049.7658069622 591057.6752245198 0  253014.5731561695 596998.6601086652 0  238680.2197353724 584542.2309791476 0  259715.365803504 591937.1938619445 0  254097.157218761 575731.4494927844 0  246806.6408589328 586139.0877599345 0  246136.1179750556 602959.471719323 0  253520.7033332401 602835.180253843 0  244125.4295793909 607538.9817227355 0  252546.8895354472 599881.3279113505 0  258289.0983523553 600397.640191779 0  247518.7952199645 583037.3718217331 0  263140.3959879661 582529.2228421422 0  262894.8586894067 585442.3590432997 0  256968.6320599076 593040.7691844478 0  243573.0187527719 600218.2795730785 0  258888.5766127351 595139.7745218446 0  262588.7569809347 576734.8569237856 0  259318.4257992262 580601.2540325444 0  249963.3812725965 607065.7205847671 0  257494.5307999607 583482.5893534871 0  258906.4757205145 572278.8089438241 0  237751.446593475 587300.5805003279 0  255142.4708720699 604956.7580261135 0  258485.4978753244 597756.9250383095 0  255516.7820591553 587791.39641967 0  239758.4692108706 601926.8203218657 0  255873.0092222999 577739.5085867504
[...]
<PointData  Scalars="f_32-0"> 
<DataArray  type="Float64"  Name="f_32-0"  format="ascii">2.5327435085391793e+07  2.5426604989432048e+07  2.5547935494452469e+07  2.5650160734603170e+07  2.5722132647696510e+07  2.5830812329566289e+07  2.5866898978864495e+07  2.5893859769576505e+07  2.5894410503787637e+07  2.5921435099922124e+07  2.5933094413603526e+07  2.5931330797807831e+07  2.5956658895698514e+07  2.6172113432838801e+07  2.6328571021866620e+07  2.6481217852415737e+07  2.6704256033699483e+07  2.6970628855984773e+07  2.7005288919065211e+07  2.7046134876905575e+07  2.7265602190734800e+07  2.7444033442684643e+07  2.7653864705196869e+07  2.7771384303393293e+07  2.7827733496611927e+07  2.7950043231216248e+07  2.7986023622829441e+07  2.8047744187884413e+07  2.8173594158443909e+07  2.8261843634896446e+07  2.8288939141147595e+07  2.8365486916217141e+07  2.8562173617073301e+07  2.8724800982390832e+07  2.8754344786709968e+07  2.8880821059209090e+07  2.9017792776742529e+07  2.9136838617650818e+07  2.9213126211095221e+07  2.9277988623627361e+07  2.9372575505822774e+07  2.9463759464869149e+07  2.9549416640647192e+07  2.9629375743165355e+07  2.9702924823962606e+07  2.9718444482538361e+07  2.9757783185510874e+07  2.9805816942305658e+07  2.9840703392541751e+07  2.9856028175515678e+07  2.9859447567431077e+07  2.9862660470330492e+07  2.9862215959082335e+07  2.9868156883945022e+07  2.9881077894511085e+07  2.9880087101970486e+07  2.9880176754007537e+07  2.9884936240466308e+07  2.9871203332685959e+07  2.9820776585966229e+07  2.9753353127036583e+07  2.9690039924434338e+07  2.9575991428669430e+07  2.9365313975631554e+07  2.9296337243611399e+07  2.9412336541633449e+07  2.9460744975265805e+07  2.9474144076659311e+07  2.9488130211640891e+07  2.9510585091504045e+07  2.9542912849561136e+07  2.9661086616548605e+07  2.9699282009266980e+07  2.9717144535247311e+07  2.9720732472388741e+07  2.9701413540651809e+07  2.9643623981649108e+07  2.9575612913091779e+07  2.9479964459245056e+07  2.9452643764033690e+07  2.9452855962754015e+07  2.9458060887082227e+07  2.9459299561912142e+07  2.9453290261514492e+07  2.9449034105050359e+07  2.9443537197931789e+07  2.9421782360547028e+07  2.9364382155826859e+07  2.9271259465634499e+07  2.9234295204013467e+07  2.9277718586208120e+07  2.9299864245126251e+07  2.9307273425434619e+07  2.9301202792198148e+07  2.9303867866332300e+07  2.9297453685815506e+07  2.9296093986489024e+07  2.9286934989692502e+07  2.9282374576877061e+07  2.9271602567154221e+07  2.9180796805204742e+07  2.9074119486918624e+07  2.8917478631507535e+07  2.8744461573229827e+07  2.8507840401524220e+07  2.8186984303417146e+07  2.7792403532954779e+07  2.7379406448050611e+07  2.6984712503306039e+07  2.6651866803682655e+07  2.6223315861592166e+07  2.6043264564128403e+07  2.6032392858308371e+07  2.6197396021918070e+07  2.6345204707296178e+07  2.6409081548062179e+07  2.6467105430674758e+07  2.6533465907371834e+07  2.6581245768577386e+07  2.6615252191310946e+07  2.6622911208098002e+07  2.6622987659986936e+07  2.6611235063834991e+07  2.6580005305041138e+07  2.6568904317870807e+07  2.6591740256074712e+07  2.6606464665265240e+07  2.6611189117069088e+07  2.6611199023158494e+07  2.6595921521275949e+07  2.6498397494206455e+07  2.6465703386856206e+07  2.6407993858113427e+07  2.6372931328816678e+07  2.6323214882692311e+07  2.6269374589445625e+07  2.6209245329070572e+07  2.6164582221031141e+07  2.6148262296300080e+07  2.6152059202901941e+07  2.6156987087748144e+07  2.6156266963828243e+07  2.6158112010208372e+07  2.6159168796212483e+07  2.6159038161826856e+07  2.6150155350421749e+07  2.6118084100818802e+07  2.6019067438030809e+07  2.5790172333837628e+07  2.5582317734386444e+07  2.5447422418729607e+07  2.5384404717201158e+07  2.5360492480499797e+07  2.5275953466884226e+07  2.5219753137014739e+07  2.5176496366199620e+07  2.5162625062042445e+07  2.5119535191183791e+07  2.5071870561148599e+07  2.5070878570512481e+07  2.5059193496127561e+07  2.5021948939722005e+07  2.4934887554458588e+07  2.4826900889347900e+07  2.4739750287471116e+07  2.4640353806236468e+07  2.4573171470762700e+07  2.4522075350030653e+07  2.4496340800432581e+07  2.4485197754989639e+07  2.4466065967604745e+07  2.4457604329804670e+07  2.4456667660691500e+07  2.4456766921237785e+07  2.4454485170503329e+07  2.4453802952607356e+07  2.4454615391032826e+07  2.4458620255469006e+07  2.4464498022641402e+07  2.4464545476986509e+07  2.4467295307244036e+07  2.4481851663010642e+07  2.4484144068482947e+07  2.4484443324648686e+07  2.4485385975747887e+07  2.4484628054968726e+07  2.4483267020306908e+07  2.4480847211564146e+07  2.4478088470261406e+07  2.4478858232274480e+07  2.4489928343533073e+07  2.4510136184363727e+07  2.4554916314261783e+07  2.4590285521186262e+07  2.4636817250670783e+07  2.4705839183721334e+07  2.4792540128004134e+07  2.4929242685547348e+07  2.5125925002851430e+07  2.5259612994821496e+07  2.5932495760326374e+07  2.7017276675319936e+07  2.9640330473631352e+07  2.9851650230888478e+07  2.9879487959769975e+07  2.9321309066065647e+07  2.9715632223837104e+07  2.5068730313224889e+07  2.9254167329700768e+07  2.9305791625748873e+07  2.6597903263145458e+07  2.6577158924871005e+07  2.6156862725357242e+07  2.6158947595687274e+07  2.9612067789275680e+07  2.5932479489391107e+07  2.5930718869060073e+07  2.9609995042096678e+07  2.9667327993065953e+07  2.5068731900195319e+07  2.9245234912922554e+07  2.9305795575810198e+07  2.9476258398949265e+07  2.9593551391601264e+07  2.9302740051062390e+07  2.9601889909424119e+07  2.9302702166490428e+07  2.4773368247841462e+07  2.7071752746164374e+07  2.8637358459033377e+07  2.5074899229587507e+07  2.4464563268505152e+07  2.5434284429112058e+07  2.8494406366461776e+07  2.6278260344422098e+07  2.7044969604912627e+07  2.4761018626150224e+07  2.4655949100504309e+07  2.8593140162881177e+07  2.5372603028313790e+07  2.9375357076375976e+07  2.7435755304977670e+07  2.5199637779864300e+07  2.5411127447021849e+07  2.7951396311722226e+07  2.4452373676396124e+07  2.9026720337572023e+07  2.6263740713456079e+07  2.7890517275379002e+07  2.5157166775151122e+07  2.4548901384482142e+07  2.4840302738363501e+07  2.4794556040642176e+07  2.5564565062033191e+07  2.4602118067806493e+07  2.9128418575619012e+07  2.4444992436657980e+07  2.8740269983523510e+07  2.7137866864627089e+07  2.8039382539739043e+07  2.4950845426056005e+07  2.8035476879575863e+07  2.6132790369966500e+07  2.7379478725771304e+07  2.6246644487434547e+07  2.6034602231008466e+07  2.4531713034761697e+07  2.6059889960089747e+07  2.9100614598400395e+07  2.8547168841164853e+07  2.9689875169278692e+07  2.8000254011859644e+07  2.7914075157030016e+07  2.5475721608306609e+07  2.4781964840454202e+07  2.5099432278089754e+07  2.6289677622915938e+07  2.8976653028457467e+07  2.6834344119552158e+07  2.4474039424616262e+07  2.4560902687517747e+07  2.9316479336538367e+07  2.4694145049681894e+07  2.4451726876560792e+07  2.6433683828742873e+07  2.8785885534720916e+07  2.7423062891180072e+07  2.4898076575672965e+07  2.9358135018615007e+07  2.4505793561606050e+07  2.5793245321048200e+07  2.5887246739359085e+07  2.6870810801050961e+07  2.5435185558188621e+07  2.4738616956531160e+07  2.5420150109079342e+07  2.5494450931887485e+07  2.4851120037087541e+07  2.4956466689174082e+07  2.5008017035458267e+07  2.5234378316125602e+07  2.9602325554449383e+07  2.9037354154203698e+07  2.5025277663794167e+07  2.9454430624247853e+07  2.8545664877046820e+07  2.8432587352598015e+07  2.9074622845438804e+07  2.6114325535972368e+07  2.5861730809257142e+07  2.7483356944087330e+07  2.8262719379851975e+07  2.5599068031556312e+07  2.8970630655627545e+07  2.4843256679314602e+07  2.6889589814854149e+07  2.4473394571627971e+07  2.4967079380656235e+07  2.7460704674222842e+07  2.8839402717369787e+07  2.6900759210137542e+07  2.7995360756429166e+07  2.6619842896384519e+07  2.8383970164370626e+07  2.4449466168426368e+07  2.5242569968264610e+07  2.5180157089185528e+07  2.9020428863823820e+07  2.7571006914272375e+07  2.4631533064095117e+07  2.9164345754322506e+07  2.6516795656529553e+07  2.9282593968425829e+07  2.4469166514192771e+07  2.9614840372699082e+07  2.9601369379461020e+07  2.5313909115636304e+07  2.5886439916701213e+07  2.9606985860121358e+07  2.9704616094229493e+07  2.9202549365051419e+07  2.9251898822324511e+07  2.6555086529992979e+07  2.4457907633193616e+07  2.9170857890706625e+07  2.8799172303106565e+07  2.5354049347393181e+07  2.5863009417661898e+07  2.5664346039214473e+07  2.9683925564940829e+07  2.9598092832050841e+07  2.6545281169578627e+07  2.9423804801907558e+07  2.9485385283242512e+07  2.9544966539560638e+07  2.9712392129496358e+07  2.5925860910914369e+07  2.5041058424413804e+07  2.6563715695250746e+07  2.4450866459870677e+07  2.5779799918012537e+07  2.4569126105472401e+07  2.6493244167440839e+07  2.9836664061723523e+07  2.6352258823042583e+07  2.6577432683613192e+07  2.9215896092124719e+07  2.5954175648818281e+07  2.4461301351826936e+07  2.6567372489602964e+07  2.4584508750580795e+07  2.5176291472122323e+07  2.9247924867196713e+07  2.9165942315120179e+07  2.6126508333428804e+07  2.9836149809449162e+07  2.4803218615836471e+07  2.9338812631138019e+07  2.7338806404546384e+07  2.4481346726660829e+07  2.4467196192117378e+07  2.4493259917160209e+07  2.8243524465239599e+07  2.9265012481290225e+07  2.9167546134452946e+07  2.7857856121292073e+07  2.9655489402817026e+07  2.6853663638966400e+07  2.5066331978316970e+07  2.5066067623829808e+07  2.4455251133917093e+07  2.9606060496139485e+07  2.9625571106123470e+07  2.9633465171302307e+07  2.8762239642049138e+07  2.9121412586860947e+07  2.9640174262831587e+07  2.9506364039728288e+07  2.6392254488536563e+07  2.9876516616443515e+07  2.9873163782776695e+07  2.5979694063214663e+07  2.4494279279195048e+07  2.6141323751735248e+07  2.9324118142467953e+07  2.6296333220528949e+07  2.6240251959671710e+07  2.9847138354543213e+07  2.6066188815417163e+07  2.8397683380225074e+07  2.4958482617869802e+07  2.5366387924632970e+07  2.5315823684095960e+07  2.5420240694201518e+07  2.9282039130514916e+07  2.5854618965350926e+07  2.5899923453284469e+07  2.5802414282524951e+07  2.5893187224262960e+07  2.5694345200353842e+07  2.4480252381087776e+07  2.4467718243968353e+07  2.5956941842691917e+07  2.5285693795925710e+07  2.6620567040592890e+07  2.6619831743081301e+07  2.9864584576055732e+07  2.7538844650498111e+07  2.7081719272893608e+07  2.6197210466762174e+07  2.6043205604587328e+07  2.6042191401416644e+07  2.6023551685795479e+07  2.6014748563508023e+07  2.5993996217288855e+07  2.6103778741848268e+07  2.6000474776047889e+07  2.6034015318405602e+07  2.6208687827643428e+07  2.6114999037057001e+07  2.5667528800124262e+07  2.5852968563816141e+07  2.4878861217221830e+07  2.4940281670412116e+07  2.4866245386172794e+07  2.4785507152596731e+07  2.4812443789924435e+07  2.4691102528137226e+07  2.4769843386338964e+07  2.4725761073663671e+07  2.4555165098676089e+07  2.4509236429100681e+07  2.4484024602074299e+07  2.4498626618877079e+07  2.4492807443667024e+07  2.4528083742330298e+07  2.4503299208704606e+07  2.4572000823940195e+07  2.4563786813426014e+07  2.4519366454716694e+07  2.4614807021103378e+07  2.4579209508217897e+07  2.4633947301462770e+07  2.4601360142969217e+07  2.4676654940509941e+07  2.4808064278019920e+07  2.4720096198203046e+07  2.4726476169645924e+07  2.4691872295457054e+07  2.4705739564515829e+07  2.4803492077271685e+07  2.7470706799094129e+07  2.7210911114307590e+07  2.6964491601704534e+07  2.7250218573578291e+07  2.8333754825819559e+07  2.8853560245590791e+07  2.8530974911038499e+07  2.8804677321203794e+07  2.5252327152718212e+07  2.4957568294710055e+07  2.5005243039471254e+07  2.5150178838782497e+07  2.4491941457542568e+07  2.4519181249138750e+07  2.4444368478793249e+07  2.4502036937627789e+07  2.4475810146490522e+07  2.4452136201336898e+07  2.5750729001151174e+07  2.5852652402877368e+07  2.5128461431298852e+07  2.5428924640030608e+07  2.5301336826244801e+07  2.8624798172638383e+07  2.8276806999580637e+07  2.6158223278632097e+07  2.6186202604219537e+07  2.6532580852780398e+07  2.5931752578823742e+07  2.6585754055023462e+07  2.6480448641949784e+07  2.6668597294769939e+07  2.7201673887254450e+07  2.6951104942282841e+07  2.4640652622865684e+07  2.4774721065875039e+07  2.4917558318061870e+07  2.4645833443133172e+07  2.4715781063193928e+07  2.4617677134286460e+07  2.4786032082766753e+07  2.4581280448923688e+07  2.4570201889503535e+07  2.4697138129127048e+07  2.4749827185041126e+07  2.8239664533790398e+07  2.8850144484237675e+07  2.8495527065180499e+07  2.8906308947166350e+07  2.9251797703211240e+07  2.7750468623264384e+07  2.7166160708706707e+07  2.7722014058258813e+07  2.7501464241488803e+07  2.4988247593035556e+07  2.5301865037586913e+07  2.5376753671922259e+07  2.4965687749944922e+07  2.8252134710700952e+07  2.7951443127929568e+07  2.7930333616215523e+07  2.7704523104587048e+07  2.4441050421104278e+07  2.4457149470757086e+07  2.6168583868458804e+07  2.6251710786854520e+07  2.5881294099160347e+07  2.7925720845776211e+07  2.7612397057308380e+07  2.8172127381226476e+07  2.7646750395203330e+07  2.5285370677762110e+07  2.5048681186847631e+07  2.5058801691234931e+07  2.5189078445073847e+07  2.5089786563241020e+07  2.5172529686406452e+07  2.4645774816528074e+07  2.4499271430588461e+07  2.4549310891837623e+07  2.4480929373343945e+07  2.4587830827690769e+07  2.4560087038902905e+07  2.4754193170775004e+07  2.4834585123598311e+07  2.5007067174708106e+07  2.4756111943551622e+07  2.4650793924107283e+07  2.4811737684296332e+07  2.4870743815154720e+07  2.4877611325290333e+07  2.4684337106098842e+07  2.4795011546568871e+07  2.5515572666006759e+07  2.5745767428627383e+07  2.5488990528449036e+07  2.5393149508647870e+07  2.4571174441502709e+07  2.4644891136515193e+07  2.4547342134026602e+07  2.4658550022914849e+07  2.4471681935011216e+07  2.4444152167547941e+07  2.4460661714679349e+07  2.4439041597231660e+07  2.4451119701761790e+07  2.4447061451754298e+07  2.4461856441622980e+07  2.7023206770653788e+07  2.6882432151198208e+07  2.7353741529986151e+07  2.7339218967844814e+07  2.8016166359421249e+07  2.4836260601155017e+07  2.4898937471002799e+07  2.7751733480288304e+07  2.6495364049255669e+07  2.5795152293402247e+07  2.5795722993048228e+07  2.6315337708337750e+07  2.7676142378881630e+07  2.7426230121076841e+07  2.6174326880839754e+07  2.6161077879216991e+07  2.6147359518588066e+07  2.5616595355193529e+07  2.4513105387268066e+07  2.4555481736022104e+07  2.4510260391168736e+07  2.5872219662106212e+07  2.6331071706277858e+07  2.8777936356004916e+07  2.9030134696909845e+07  2.8283976311314780e+07  2.8803836536333382e+07  2.8395732397087447e+07  2.8218697470196579e+07  2.7707477491578266e+07  2.7699189902409703e+07  2.5329453117292717e+07  2.4699181961775798e+07  2.5876016654217698e+07  2.6433949756199095e+07  2.4460458428906709e+07  2.4509477110908724e+07  2.4484479445843432e+07  2.4634580577708811e+07  2.4808995287061021e+07  2.5144282345622901e+07  2.5021443906933330e+07  2.4821654256163105e+07  2.5557340134777751e+07  2.5880733824208442e+07  2.5916486859669443e+07  2.5921316567419913e+07  2.5975248200018518e+07  2.6872261302279226e+07  2.6657554035483427e+07  2.5341903457550198e+07  2.4867396712465242e+07  2.4900458971403684e+07  2.4993526652006611e+07  2.4956258507654924e+07  2.4879281546306442e+07  2.5107063774959553e+07  2.5252699100243360e+07  2.4933818937821075e+07  2.8710932104284868e+07  2.5148199900986940e+07  2.5087938950893108e+07  2.6774443299379341e+07  2.7240058335863166e+07  2.7786850808023702e+07  2.7557139080048516e+07  2.4597893029487271e+07  2.4475672523337372e+07  2.4471278933403447e+07  2.5940136468826015e+07  2.4523499295110609e+07  2.5995290743496131e+07  2.4688103040715471e+07  2.4532508609057333e+07  2.6018288562360629e+07  2.4744609407780670e+07  2.7358336282304984e+07  2.4474888075957537e+07  2.4487299775526978e+07  2.4451135623948634e+07  2.4468088356507443e+07  2.4445548354388669e+07  2.6535287537371811e+07  2.4683894864588980e+07  2.4717287772815801e+07  2.4701592830443487e+07  2.8675105831621021e+07  2.5660638830338985e+07  2.5080552805258330e+07  2.5069684825915538e+07  2.5150447896642789e+07  2.4442915962007351e+07  2.7675219820161294e+07  2.7757745385319967e+07  2.4588923926953316e+07  2.4591966692134801e+07  2.4761657218185615e+07  2.4781653852797221e+07  2.4721379032223444e+07  2.5445509732082359e+07  2.6126197094240483e+07  2.6310890043072078e+07  2.5943428337759245e+07  2.6394224009554479e+07  2.4586364722934477e+07  2.4497260678516649e+07  2.4542925089956362e+07  2.4520378246607412e+07  2.7848524431680053e+07  2.4528626603897259e+07  2.4563998383697212e+07  2.4597546666146889e+07  2.5000103220564343e+07  2.4928329226285271e+07  2.5004524226134885e+07  2.4943254874237325e+07  2.4535261543839049e+07  2.4478975458201408e+07  2.4507990434758540e+07  2.5123270161424287e+07  2.8331288407569062e+07  2.8458789831280861e+07  2.8605316424733978e+07  2.6086588783016980e+07  2.7585943169827860e+07  2.4969250483643621e+07  2.4982701341254327e+07  2.4930733236690443e+07  2.5023970343030643e+07  2.7072082955387644e+07  2.6557821728609215e+07  2.6704071343322821e+07  2.4463835820943154e+07  2.4449876902110867e+07  2.4442269341081504e+07  2.5212230812426813e+07  2.5314679776083991e+07  2.5276821490548685e+07  2.5160760294322256e+07  2.7406130823757544e+07  2.4541931071542464e+07  2.4535880554842319e+07  2.4544205161409229e+07  2.5990741438748255e+07  2.5955270688077182e+07  2.5970098144823566e+07  2.4741191274709500e+07  2.4798298241143990e+07  2.4841199910188034e+07  2.4481570123744983e+07  2.4505780525908869e+07  2.4501252944518723e+07  2.6045200260328531e+07  2.6132918682043672e+07  2.6085269883836642e+07  2.6019945446128532e+07  2.6028192152084872e+07  2.6040366301388152e+07  2.6013894527274061e+07  2.4871882997771934e+07  2.4521700816119764e+07  2.4738712041103702e+07  2.7553475390265569e+07  2.5073117461734682e+07  2.5044424251255132e+07  2.4468081369321160e+07  2.4494719919579908e+07  2.4521275535651710e+07  2.4533781552483160e+07  2.4506931406302884e+07  2.4465124554376084e+07  2.5203611395445831e+07  2.5062704287666831e+07  2.5153864620762479e+07  2.6310349910130333e+07  2.6626344981270403e+07  2.4642396907647237e+07  2.4706448683089424e+07  2.4644950504626758e+07  2.4680156373062093e+07  2.4767155059025895e+07  2.4612651542764168e+07  2.4555632312003329e+07  2.4538406587717406e+07  2.4819467365486857e+07  2.8635620984844986e+07  2.5053226996323433e+07  2.5210899701481808e+07  2.5046441294812765e+07  2.7816634044836871e+07  2.7826006539182596e+07  2.7696952237510659e+07  2.5120240139474012e+07  2.5262242696076237e+07  2.5137087622627851e+07  2.4836137121593677e+07  2.5358062151781596e+07  2.5363429475377381e+07  2.4488818658922456e+07  2.4488760091352742e+07  2.7188824896826420e+07  2.7130912789661348e+07  2.7296913682471786e+07  2.4531379282374643e+07  2.4516604600247581e+07  </DataArray> 
</PointData> 
</Piece>
</UnstructuredGrid>
</VTKFile>