<?xml version="1.0"?>
<VTKFile type="UnstructuredGrid"  version="0.1"  >
<UnstructuredGrid>
<Piece  NumberOfPoints="784" NumberOfCells="1320">
<Points>
<DataArray  type="Float64"  NumberOfComponents="3"  format="ascii">266913.131276 586512.314988 0  266738.13716 587762.325998 0  266363.132677 589012.328643 0  266175.641078 590169.601714 0  265666.575631 591040.7699119999 0  264875.64001 591687.766419 0  264900.636161 591845.049083 0  266088.14152 592012.3229499999 0  265561.959259 592661.17101 0  264288.136855 593037.368683 0  263865.194033 593999.8486949999 0  263850.641856 593236.729596 0  263625.634872 592756.525286 0  262689.574249 593299.848918 0  262475.636737 594003.0907310001 0  261934.554452 594340.929792 0  261725.631329 594932.094409 0  261729.256443 595728.498809 0  262138.136044 595012.330523 0  262288.141035 596262.333669 0  261488.994028 597511.480605 0  261234.15567 598316.338928 0  260815.635063 599014.863821 0  261400.643658 599389.7367680001 0  261322.963374 600022.185065 0  261119.455248 600931.061306 0  261607.436504 601293.0629359999 0  260807.446929 602089.899812 0  260025.642878 602988.868697 0  259613.135827 603937.3854499999 0  259050.643123 604100.987861 0  258411.880065 603988.6335979999 0  257764.357469 604449.872569 0  257971.239668 605320.429125 0  258041.396867 605740.635381 0  257188.143339 606987.394312 0  256038.141198 608112.3554550001 0  254788.141633 609087.4026939999 0  253588.140656 609812.362881 0  252338.135706 609737.4048949999 0  251088.138116 609787.404055 0  249963.12851 610287.399466 0  248613.130524 610462.365857 0  247363.132198 610687.407659 0  246113.130532 610837.411551 0  245832.347438 610918.209918 0  245016.946433 610958.5639439999 0  244313.129646 610762.372259 0  244400.622144 611378.093316 0  243939.669208 612460.8930899999 0  242960.649733 611984.892792 0  242170.381438 611919.647351 0  241888.122919 611112.375656 0  241393.380757 610467.6456149999 0  240594.157528 611306.369822 0  240525.621947 610804.648112 0  240363.123632 610512.3745050001 0  239113.123247 610262.374278 0  239813.12126 609037.412459 0  240588.122952 607812.368199 0  241013.119545 606625.9534560001 0  241454.373249 605724.888025 0  242238.120107 604687.3993 0  243088.121248 603462.362766 0  242860.319451 603007.3932640001 0  241563.116617 603812.361344 0  241778.400913 604327.642217 0  242059.837234 604824.879102 0  241475.620201 604923.2402390001 0  241462.182234 605449.881372 0  240906.219606 605674.888222 0  240241.856192 606891.125066 0  239891.734044 607841.012479 0  239048.653431 608724.889805 0  238118.054545 608974.895967 0  238888.111029 607337.406468 0  239738.119992 606212.362729 0  240288.12044 605687.4075229999 0  240380.212307 604729.521696 0  239347.309632 604603.204501 0  238888.112036 604387.408787 0  237913.11173 604687.401386 0  236784.172023 604499.882783 0  236883.408793 603717.08334 0  236154.933927 603595.565605 0  235688.103943 602912.369264 0  235763.108033 601662.366516 0  236363.110805 600412.35884 0  236738.107995 599162.356577 0  236525.607944 598482.2412899999 0  236138.109208 599362.357613 0  235725.063048 600325.4466510001 0  235091.948926 601408.5220979999 0  235188.10921 600312.366344 0  234375.602405 600833.9674270001 0  234663.109308 599912.358011 0  234138.105122 600062.365644 0  233955.307245 599029.561063 0  233338.103791 598387.401556 0  233988.09795 597862.356384 0  235138.101489 596637.3947750001 0  235563.1039 595387.392428 0  236513.103639 594212.356312 0  237163.10684 592987.3929869999 0  238313.103031 591862.3515540001 0  239513.107028 590812.3512640001 0  240638.102135 589787.387271 0  241463.109549 588587.378486 0  242294.489816 587443.735215 0  242913.101099 586512.341804 0  243544.066915 585474.859604 0  243040.448415 585184.975583 0  242438.10214 585337.38015 0  241313.102353 586562.339499 0  240538.107104 587787.382449 0  240114.641085 588588.939407 0  239388.100256 589437.382238 0  238188.104456 590512.346358 0  236938.100507 591362.349798 0  235813.10453 592537.396388 0  234864.502938 593178.7753880001 0  234463.097651 592862.357267 0  235113.0965 591662.3545979999 0  235713.101522 590412.346099 0  235777.688431 589976.7582779999 0  234943.583145 590706.265132 0  234462.482256 591490.2841159999 0  233801.497784 592112.940187 0  233388.099101 591787.394208 0  234013.093099 590437.393065 0  234776.217248 587148.7548100001 0  235163.093726 586562.3486189999 0  235313.098918 585483.229012 0  235250.59732 584662.298153 0  235588.093896 583337.379493 0  236329.432041 582199.858992 0  237188.096234 581462.3349939999 0  237463.088521 580212.335511 0  238350.592558 579057.652616 0  238591.415797 578574.847681 0  238313.094106 577612.328905 0  239229.696732 577695.769664 0  240195.161018 577513.008613 0  240614.996733 577149.8518770001 0  240663.091715 577412.332622 0  240288.092486 578662.334085 0  239942.357258 579508.095811 0  240438.100019 580212.3334220001 0  241338.095553 580387.375355 0  241238.099828 579137.369157 0  241788.097003 577887.370889 0  241983.554649 577241.9220939999 0  242054.178239 576927.8105029999 0  242588.100699 575737.366175 0  243149.324833 574898.583978 0  243695.278626 573919.517981 0  244268.494418 573724.8454239999 0  244995.134063 573930.2767810001 0  245417.314363 573391.601898 0  243450.599125 571859.479773 0  245776.797908 572599.8353060001 0  246779.639852 572973.285167 0  248034.741935 573186.082054 0  249413.10651 573162.3205520001 0  250496.922226 573271.1521899999 0  251613.105126 573237.3551319999 0  252421.824577 572846.032906 0  253256.245022 572580.4733130001 0  253739.471933 571960.9547369999 0  254174.511864 572149.8346569999 0  254484.944333 571684.194807 0  254384.108649 570891.346712 0  254344.002752 570218.26407 0  255025.609604 570829.0294979999 0  255715.005913 570489.264586 0  256218.846343 570774.828355 0  256834.349083 570508.5908 0  257390.092515 570014.308325 0  257624.431042 568493.478911 0  259355.811717 569380.021819 0  260033.372814 569617.066669 0  262679.741751 570320.699974 0  263289.115756 569524.817815 0  263463.114338 570512.301061 0  264638.198419 570687.3443539999 0  265058.220065 571334.378467 0  265447.561421 572077.90485 0  265488.125257 573137.3446020001 0  265131.937715 573963.293593 0  265432.389648 575093.068786 0  265638.122314 576338.029955 0  265750.630817 577371.8281319999 0  265738.570663 578561.9098850001 0  265875.630866 579139.630549 0  266213.129247 579862.311842 0  266563.130472 581112.314509 0  266238.135356 582362.310259 0  265938.12863 583612.320897 0  265738.131342 584762.3210189999 0  266875.638633 585365.358768 0  264018.7239399826 593650.4646671159 0  262236.3944351029 595831.1252656333 0  241846.246678 605206.1436625 0  240200.622106 608424.8903290001 0  240943.4862974102 610939.7757535663 0  236550.6094 599787.3577085 0  238528.1212051503 608102.9081793013 0  244413.4891967989 572609.5960859474 0  236382.0474488751 598808.3067022427 0  235369.601910944 600933.5380148316 0  235413.099011 591037.3503485 0  235446.2251831186 590266.6553871984 0  240475.5921005 578037.3333535 0  240413.173949154 577324.4280286073 0  240574.037899 606283.0066440001 0  263857.9179445 593618.2891454998 0  264153.4303974913 593343.916675058 0  242042.1833925 604946.7714812499 0  241650.3099635 605465.51584375 0  244613.6985165 572229.6575395 0  236631.8579695 598822.2989335 0  235140.029068 600860.444221 0  241767.7287175 604874.0596705 0  242140.15174975 604817.0853906251 0  234781.8558075 600573.1668855001 0  242091.167571125 604881.9284359375 0  234519.3558565 600373.162719 0  254604.8337712102 583989.0014118921 0  250699.5846056537 594617.3297041012 0  250540.4796469513 602258.2940568649 0  248483.7490186612 580334.7345534252 0  258549.2190328319 577893.951823392 0  257067.0067473103 590016.5327808241 0  243285.0921999099 596333.923437875 0  248333.1386145258 589098.0389905117 0  256142.8445072741 595883.3911551933 0  260245.1368072523 583315.2785712298 0  253472.3380211276 578932.2908163272 0  246432.3347504817 599884.5019511909 0  261555.9240922556 588041.186709004 0  247293.1100123104 605823.8307887657 0  246458.2798550911 593168.8646574575 0  252840.0183145193 588226.5564648228 0  249828.2874404451 584740.7888937403 0  255409.5660975206 600458.8956828594 0  260819.9733392385 574219.403683011 0  252584.2262054711 605722.6603825617 0  254049.8830611471 592547.4852571967 0  250015.4356193061 598425.2225922942 0  245872.072249477 577604.9761853142 0  262002.1583249522 579753.4663046852 0  257732.6630933878 586227.970805314 0  250242.5556457866 577017.3316409125 0  244921.6453001869 581816.6358421432 0  256520.3890639471 580904.824006648 0  240779.0970645865 599524.6679555867 0  257100.1829219198 574459.5922545703 0  239912.2630002034 595231.1172704464 0  244703.0875078634 590068.6945953515 0  242549.5490268674 592874.3693043783 0  251586.0465921376 581796.2215047925 0  246643.189997516 596527.447801719 0  251049.7658069622 591057.6752245198 0  253014.5731561695 596998.6601086652 0  238680.2197353724 584542.2309791476 0  259715.365803504 591937.1938619445 0  254097.157218761 575731.4494927844 0  246806.6408589328 586139.0877599345 0  246136.1179750556 602959.471719323 0  253520.7033332401 602835.180253843 0  244125.4295793909 607538.9817227355 0  252546.8895354472 599881.3279113505 0  258289.0983523553 600397.640191779 0  247518.7952199645 583037.3718217331 0  263140.3959879661 582529.2228421422 0  262894.8586894067 585442.3590432997 0  256968.6320599076 593040.7691844478 0  243573.0187527719 600218.2795730785 0  258888.5766127351 595139.7745218446 0  262588.7569809347 576734.8569237856 0  259318.4257992262 580601.2540325444 0  249963.3812725965 607065.7205847671 0  257494.5307999607 583482.5893534871 0  258906.4757205145 572278.8089438241 0  237751.446593475 587300.5805003279 0  255142.4708720699 604956.7580261135 0  258485.4978753244 597756.9250383095 0  255516.7820591553 587791.39641967 0  239758.4692108706 601926.8203218657 0  255873.0092222999 577739.5085867504
[...]
<PointData  Scalars="f_32-0"> 
<DataArray  type="Float64"  Name="f_32-0"  format="ascii">3.0737820188765093e+06  3.2105547910413658e+06  3.3736084954985697e+06  3.5052593284278549e+06  3.5979572113794768e+06  3.7326229579249173e+06  3.7709186827238188e+06  3.7913407800230421e+06  3.7940442405821029e+06  3.8382193369710045e+06  3.8491034864558936e+06  3.8506658517137165e+06  3.8950763377011493e+06  4.1542366857850305e+06  4.3085229684924455e+06  4.4436799386276873e+06  4.6199584073597994e+06  4.8053448621257143e+06  4.8253488153515160e+06  4.8545227078784490e+06  5.0025249551086742e+06  5.1168407125238208e+06  5.2434295119168404e+06  5.3088121577651780e+06  5.3402984976681443e+06  5.4078960113865891e+06  5.4270599540984090e+06  5.4634794104906730e+06  5.5364138134843474e+06  5.5861578961756453e+06  5.6022020741321389e+06  5.6469839543132503e+06  5.7502111432794333e+06  5.8272012185566314e+06  5.8406988661895599e+06  5.9001754925628211e+06  5.9657579528956050e+06  6.0236898855041927e+06  6.0618691837654086e+06  6.0964540277324878e+06  6.1460390516051138e+06  6.1919995442267442e+06  6.2342544360207068e+06  6.2726825272337459e+06  6.3069629126381045e+06  6.3140452036523633e+06  6.3318131923994534e+06  6.3529229828057503e+06  6.3675148271523127e+06  6.3738185608699191e+06  6.3755046838805620e+06  6.3770743995028045e+06  6.3774289905035282e+06  6.3808723082315326e+06  6.3863571111145718e+06  6.3860011013365407e+06  6.3861666938633695e+06  6.3882378510380005e+06  6.3831479220308047e+06  6.3648690080704670e+06  6.3410946674218122e+06  6.3191585038939631e+06  6.2802996610722831e+06  6.2108912456155196e+06  6.1901719095537551e+06  6.2364387036948623e+06  6.2555973232661961e+06  6.2609272821060549e+06  6.2665337854141109e+06  6.2755554043424930e+06  6.2886511014353745e+06  6.3366036423126189e+06  6.3521070913900612e+06  6.3593450346962539e+06  6.3607950361794475e+06  6.3529708042701576e+06  6.3295141550265346e+06  6.3019163476419887e+06  6.2630789540438494e+06  6.2515288298887722e+06  6.2513042106846441e+06  6.2529587746644784e+06  6.2532774949751226e+06  6.2507315318608768e+06  6.2488254737712462e+06  6.2465045654390873e+06  6.2375241569471890e+06  6.2138443737015370e+06  6.1747095275103971e+06  6.1577811809001910e+06  6.1742713641655529e+06  6.1830142760422453e+06  6.1859653301564846e+06  6.1835312983591361e+06  6.1845659893642822e+06  6.1819869363012752e+06  6.1814099806794766e+06  6.1776808827496087e+06  6.1758051842586463e+06  6.1714535781056872e+06  6.1344113153745458e+06  6.0902245159082012e+06  6.0249517233030871e+06  5.9521012939926060e+06  5.8513241628968138e+06  5.7104652249437850e+06  5.5254440945636332e+06  5.3147783953738464e+06  5.0920657815816207e+06  4.8866458258894039e+06  4.6007853933723280e+06  4.4787184787375163e+06  4.4716194732698677e+06  4.5461329795095846e+06  4.6028052816615533e+06  4.6277788881385522e+06  4.6513512528644186e+06  4.6795053200166272e+06  4.7006415140441014e+06  4.7159825693053501e+06  4.7193955663736779e+06  4.7194286931091333e+06  4.7141622725992259e+06  4.6998609447156349e+06  4.6945503543565525e+06  4.7046546463239901e+06  4.7113500687589012e+06  4.7134734834025707e+06  4.7134745643616859e+06  4.7065411127187712e+06  4.6604014489821251e+06  4.6443640600190070e+06  4.6146071034904635e+06  4.5955377428059103e+06  4.5673842617923990e+06  4.5352315996972956e+06  4.4964557352784714e+06  4.4624176820899434e+06  4.4453449422501363e+06  4.4447406082274877e+06  4.4459047495959327e+06  4.4454132678266149e+06  4.4458385981293246e+06  4.4462325707128970e+06  4.4461828576705344e+06  4.4424825964037711e+06  4.4272238977036783e+06  4.3681786749120094e+06  4.1958184463139148e+06  3.9952499388244986e+06  3.8450584571313746e+06  3.7669043068868858e+06  3.7356885987999109e+06  3.6187061716890954e+06  3.5352706347067100e+06  3.4676706807504557e+06  3.4466558310106304e+06  3.3799361828577030e+06  3.2945129268443878e+06  3.2695211708033942e+06  3.2684613170519378e+06  3.2173775716957264e+06  3.0699939046509392e+06  2.8491218610279313e+06  2.6333504939870429e+06  2.3314829444527640e+06  2.0817369556500812e+06  1.8524735661815617e+06  1.7190367570117263e+06  1.6519494058564662e+06  1.5294446060964414e+06  1.4739271811595075e+06  1.4691028205188967e+06  1.4621603015445508e+06  1.4309330433496404e+06  1.4050261901503708e+06  1.3660950109552436e+06  1.3479279851981755e+06  1.3469632340394196e+06  1.3374447208304331e+06  1.3317466807077939e+06  1.3428766153559303e+06  1.3498009660610307e+06  1.3480568036495647e+06  1.3521593594379290e+06  1.3510674548312067e+06  1.3471172096224374e+06  1.3381908459191623e+06  1.3273693571608781e+06  1.3333706984127003e+06  1.3769202059811219e+06  1.4458792686250424e+06  1.5831959237091253e+06  1.6864172866001669e+06  1.8141211937358980e+06  1.9841656749957516e+06  2.1776126029720311e+06  2.4531991233134773e+06  2.7890839113147547e+06  2.9792120269780993e+06  3.8491916456333166e+06  4.8346365984352017e+06  6.3021106307898676e+06  6.3760038817718448e+06  6.3857195531712230e+06  6.1959136820725007e+06  6.3587325371433366e+06  3.2710942423825096e+06  6.1651123800477786e+06  6.1853741660330426e+06  4.7080999007669091e+06  4.6980751732854899e+06  4.4453211500529423e+06  4.4461485555465827e+06  6.3167069611156657e+06  3.8491594221102740e+06  3.8488825804602383e+06  6.2917914679557243e+06  6.3113487763343621e+06  3.2711009463926810e+06  6.1633436790554821e+06  6.1853758833847009e+06  6.2617737327620257e+06  6.2862241258786470e+06  6.1841187491713287e+06  6.2890449820932299e+06  6.1841031774430946e+06  3.1303518728080923e+06  5.2740672515118504e+06  5.9168426286139116e+06  3.5203158600601968e+06  8.7445824939363147e+05  4.0606650750868195e+06  5.8749243837697152e+06  4.7811989625314418e+06  5.0571424234532500e+06  2.3950864394884934e+06  2.4126550648132828e+06  5.9532412418867964e+06  3.4038823613171130e+06  6.1902886207106439e+06  5.4285265685240598e+06  4.1886572127527730e+06  3.9725704648692119e+06  5.5645268286618767e+06  1.1166587876023171e+06  6.0018159179177349e+06  4.7635679062402491e+06  5.6770157849086719e+06  3.5393590872220132e+06  1.3571668069962179e+06  3.1871345654787798e+06  2.8821153884829925e+06  4.0716524761535395e+06  2.1091906222135369e+06  6.1235913330515511e+06  1.2186648511782140e+06  5.9572153209859794e+06  5.2219871855410542e+06  5.6633043908008384e+06  3.2625250101652360e+06  5.7148486292711617e+06  4.8088364285389027e+06  5.3713622302724887e+06  4.5453176958033340e+06  4.2184299911112366e+06  1.8582575425949025e+06  4.4964080937663373e+06  6.1200714005849529e+06  5.8221945398883475e+06  6.3131847348470958e+06  5.6610916007353757e+06  5.4332560857640486e+06  3.9907646601398652e+06  2.1608272636056514e+06  2.8638224008850344e+06  4.6093096632783925e+06  6.0753356529950695e+06  4.7989870901308181e+06  1.1466390210699143e+06  1.6124178881186277e+06  6.1380837329689180e+06  2.6273604462435273e+06  1.2688658986555566e+06  4.6341176782867927e+06  5.8747899721184820e+06  5.1619467258471707e+06  3.7605883580529355e+06  6.2137684952481054e+06  1.3866980951167387e+06  3.8214092892494341e+06  4.3374460821085172e+06  5.1828010563297849e+06  3.8815568546948121e+06  2.7590056967300978e+06  3.2639012574571362e+06  4.3309912177313128e+06  3.0555235034554275e+06  3.1726509891519649e+06  2.9891554545751703e+06  3.5829661079173856e+06  6.2687656794532705e+06  6.0422194197192499e+06  3.5529768697826997e+06  6.2339452272460973e+06  5.9136610509698056e+06  5.8899043559633596e+06  6.0957737190078441e+06  4.4539862125106528e+06  4.3237299516466120e+06  5.3554432343312139e+06  5.6320507705745781e+06  4.3235080885125026e+06  6.0569189887158796e+06  3.6578825237375130e+06  5.1128696738357898e+06  1.2965376599141227e+06  3.2999225568164927e+06  5.4682252357168468e+06  6.0061659046198009e+06  5.1437243877477683e+06  5.6656472719623419e+06  4.8820746961981179e+06  5.8019617165380148e+06  9.1997880679256271e+05  3.7390489991114507e+06  3.6392613550397633e+06  6.0694047082234146e+06  5.4654353959346050e+06  1.7456556887253409e+06  6.0445475033737011e+06  4.9699171418118058e+06  6.1815670502164140e+06  1.2460451094867261e+06  6.2912699293406801e+06  6.2882988426025324e+06  3.6984591339883320e+06  3.8111156821303428e+06  6.2906295116240242e+06  6.3103647850829037e+06  6.1470946155233933e+06  6.1636702266068039e+06  4.6875205712181078e+06  1.4432826556762143e+06  6.1462089476945549e+06  5.8645750162530011e+06  3.7333443854283104e+06  3.7741757333445218e+06  3.5713288353682468e+06  6.3165695402104091e+06  6.2877213882307597e+06  4.5469684174989853e+06  6.2401168081915118e+06  6.2500708725858033e+06  6.2696089995679529e+06  6.3119282157915216e+06  4.3796153185637919e+06  3.2716721969225090e+06  4.6926630348214852e+06  1.3472147010163460e+06  3.6953328942354750e+06  1.5933555819325976e+06  4.6589740212906608e+06  6.3696745007587150e+06  4.5883935478761159e+06  4.6979930463841958e+06  6.1514512034161007e+06  4.4125920505180573e+06  1.3199191843715629e+06  4.6934375387516208e+06  2.1346007482440178e+06  3.4725285973655954e+06  6.1623815707412818e+06  6.1289507811354343e+06  4.4408094996688431e+06  6.3674628272437165e+06  2.8281241611935729e+06  6.2036425645279726e+06  5.0670925023494186e+06  1.3354333679662177e+06  1.5309358088825627e+06  1.6824101644713720e+06  5.5803903149720430e+06  6.1777275118258893e+06  6.1446499150127433e+06  5.3684445831446024e+06  6.3071283824105440e+06  4.7470413298273711e+06  3.2737082613044959e+06  3.2728362082052529e+06  1.3355202016769992e+06  6.2904462998777479e+06  6.2970818398254905e+06  6.2997062251054076e+06  5.8452373590231938e+06  6.1125916812917404e+06  6.2800947953245053e+06  6.2196518478587428e+06  4.6197264869675357e+06  6.3845785869435417e+06  6.3836778898167172e+06  4.3614817079027612e+06  1.3507623113146529e+06  4.4400729894975284e+06  6.1944373205938935e+06  4.2924706663329871e+06  4.5246832705591386e+06  6.3704497264508521e+06  4.4666534849640150e+06  5.6762293962836526e+06  2.5316211828582902e+06  3.7449046125728497e+06  3.6752535491711940e+06  3.8161894685599571e+06  6.1758623373531830e+06  3.7608574240093371e+06  3.8059271999916742e+06  3.7068302951836782e+06  3.8020774838585560e+06  3.5727264381125085e+06  1.3326045221133006e+06  1.2999178894582903e+06  3.9405189308702950e+06  3.6380257247164366e+06  4.7183561891695140e+06  4.7180258168542050e+06  6.3800190149178747e+06  5.4110100346200196e+06  5.1594267042408744e+06  4.5794677615119033e+06  4.4659850930163264e+06  4.4709381145446459e+06  4.4664746315759597e+06  4.4530106580643002e+06  4.4445640410438897e+06  4.5072125862362012e+06  4.4502628177999509e+06  4.4673724628954958e+06  4.5449625244727386e+06  4.5086667133387178e+06  4.1232622841002573e+06  4.2743874311544253e+06  2.9611114583739666e+06  3.0972742718919637e+06  2.9440763445490720e+06  2.7514104600382103e+06  2.8244256482460387e+06  2.4940841012776950e+06  2.7212723966173748e+06  2.6030087748956452e+06  2.0062557644361004e+06  1.7854125820549366e+06  1.3452505788471163e+06  1.4075371988123448e+06  1.3773268055391721e+06  1.5021964121668700e+06  1.4129526005197223e+06  1.6336205788019816e+06  1.6008792701793057e+06  1.4631469143365363e+06  1.7550983052383945e+06  1.6465514552204956e+06  1.7924040965397139e+06  1.7116190288458706e+06  1.9037114980288805e+06  2.2064819663745421e+06  2.0052863665861601e+06  3.1038720006863852e+06  2.6698587993744826e+06  2.8543901623429204e+06  3.3920827237401465e+06  5.4894720129092159e+06  5.3213444301821860e+06  5.2290005407248670e+06  5.3727292400783030e+06  5.7977247888893560e+06  5.9844243643724862e+06  5.9041371976617556e+06  5.9898373465947211e+06  3.7562720645162254e+06  3.2997548183289948e+06  3.4020007861558883e+06  3.6372286709644375e+06  9.9909141425098397e+05  1.3435371307595905e+06  9.4940016668043495e+05  1.1183012394898862e+06  9.5517261585393420e+05  8.7031889147219737e+05  4.1425523622529637e+06  4.3533749822207158e+06  3.9066505087758037e+06  4.1924475583971925e+06  3.8120376766327959e+06  5.9174365003908696e+06  5.7756166270418642e+06  4.7942174239961691e+06  4.6413420118271215e+06  4.9920633768517058e+06  4.5601333927747682e+06  4.9682535832318766e+06  4.8346099989322582e+06  4.9133700258936323e+06  5.2162717203634055e+06  5.0804382040340053e+06  1.8179796167970817e+06  2.2416090297097848e+06  2.6337310700776163e+06  2.0283846990892603e+06  2.6670716684470768e+06  2.1975509790330902e+06  2.8661312232643915e+06  2.0789802341743517e+06  1.9409518985798394e+06  2.5724414863797184e+06  2.7679350842915960e+06  5.8245715300706374e+06  6.0431077877102736e+06  5.9221175014819400e+06  6.0599071520056007e+06  6.1596431118474547e+06  5.5807199950396959e+06  5.2928443534572665e+06  5.5524010537290834e+06  5.4467959835169790e+06  3.9832608124762652e+06  4.2578762506247191e+06  4.2558675402768664e+06  3.9324826395352758e+06  5.7016069357226389e+06  5.6114092482646191e+06  5.4950323288806733e+06  5.4650597013718383e+06  1.0799796723807850e+06  1.0678406420749973e+06  4.7825575671571549e+06  4.6832795180016756e+06  4.5585791401024284e+06  5.6944985830354579e+06  5.5305224380328776e+06  5.7895655491350964e+06  5.5762542285234835e+06  3.7132595842156322e+06  3.3586232913307962e+06  3.4305267677812940e+06  3.6324810491000270e+06  3.3901078809877280e+06  3.4995860682578967e+06  1.7450503282951999e+06  1.1740686364230243e+06  1.3922683994007839e+06  9.7907497838008194e+05  1.5561962347342696e+06  1.4816176671763076e+06  2.9083551182336025e+06  3.4511635797789367e+06  3.3842167984558828e+06  3.3745883173613218e+06  2.4174452117149932e+06  2.9573290091386926e+06  3.0357839411123460e+06  3.1009511089386484e+06  2.5208365139212692e+06  2.8449624813909656e+06  4.0376669958024905e+06  4.2182508326779110e+06  3.9749334988458399e+06  3.9100537635738542e+06  1.8213920982033028e+06  2.3844563636685438e+06  1.6713740912864972e+06  2.4424298039483083e+06  1.4563157004011385e+06  1.2273571954727869e+06  1.1664055657443174e+06  9.6835670598580129e+05  1.3493174444251009e+06  1.3044603255184565e+06  1.4317136396963187e+06  5.1826578505852064e+06  5.0598849870871259e+06  5.3493577969851056e+06  5.3177600292075388e+06  5.6638069046113491e+06  3.0229498129962850e+06  3.1503142830491732e+06  5.5975834505713023e+06  5.0033671825644765e+06  4.5802125464227069e+06  4.5725930325783826e+06  4.8909115777339460e+06  5.5246922524224399e+06  5.3617166655639512e+06  4.5010649412043253e+06  4.5098480000335295e+06  4.4165458813630315e+06  3.9198470070655551e+06  1.6347914473814419e+06  2.0041713108332467e+06  1.7627283991136095e+06  4.4164140833263565e+06  4.6904359986971999e+06  6.0158023648628443e+06  6.0900397937827101e+06  5.7480142328149546e+06  5.9386617640821887e+06  5.7297353106255811e+06  5.7796361322308229e+06  5.5140901074914318e+06  5.3931648892460680e+06  3.8568377469854029e+06  1.9216871992125702e+06  4.4684558807961978e+06  4.5736715731206117e+06  9.8446685285877180e+05  1.3498277699895632e+06  1.2619328443441321e+06  2.1753091713792188e+06  2.7834399520669528e+06  4.0625408494880758e+06  3.6306090413903156e+06  3.6996285033083106e+06  3.7281228528806940e+06  4.3457480693857986e+06  4.3747386648819139e+06  4.3406393597056372e+06  4.4090196330753462e+06  5.1637010635232879e+06  5.0766453190188836e+06  3.8181511808754983e+06  3.1741700840940811e+06  3.1828738941499875e+06  3.3486717514785617e+06  3.2263671235894309e+06  3.0110028102487498e+06  3.2849261745712534e+06  3.9534941413634522e+06  3.5992139717748193e+06  5.9798273661678676e+06  4.0171352534502419e+06  3.5246705619508484e+06  5.0205767975676153e+06  5.3113453137644818e+06  5.5702650794616975e+06  5.4385148773918850e+06  1.6630371418398442e+06  1.2692656194264290e+06  1.5436976099959465e+06  4.3974841063181804e+06  1.4498213876066583e+06  4.4361880431514727e+06  2.5066506868741168e+06  1.8991009344926823e+06  4.4143420180523517e+06  3.2401543962671515e+06  5.4319181018514624e+06  9.1020911472416588e+05  9.8711257971459336e+05  8.8318957907472679e+05  8.9314981578172860e+05  8.9056046114121377e+05  4.9025314346580934e+06  2.5443930912841507e+06  2.6489328594999653e+06  2.6007583343804786e+06  5.9855287377093444e+06  4.5177045779435448e+06  4.0887945835461966e+06  4.0636422261389596e+06  4.1011914665820831e+06  1.0136326937468454e+06  5.5869361296705026e+06  5.6276056755125420e+06  1.5437565622071431e+06  1.5423107870871609e+06  3.1310757685946776e+06  3.2634448261266826e+06  2.6644916106222449e+06  3.9718879620024730e+06  4.8011983649353143e+06  4.9079915928787747e+06  4.6929757354082000e+06  4.9472091446049707e+06  2.1431557626408706e+06  1.6433360086359440e+06  1.9340262731945654e+06  1.8078414066439732e+06  5.5894203573421929e+06  1.3707688962322508e+06  1.7073516243574626e+06  1.9062517110064374e+06  3.8323125429231068e+06  3.8727583890683502e+06  3.9150041686509978e+06  3.6853732876059227e+06  1.6702993982311185e+06  1.2171573592270652e+06  1.5062041973478780e+06  3.5989092446025363e+06  5.8579417162843319e+06  5.9060729182343790e+06  5.9555168324147873e+06  4.4566943500101510e+06  5.4358267042686222e+06  3.8441477956554182e+06  3.3487419166184389e+06  3.2426816811336773e+06  3.4136212061467282e+06  5.2290598015966276e+06  4.8595992930590510e+06  4.9542264736116324e+06  8.9983851734011841e+05  8.9005685635574756e+05  9.2698259277523903e+05  3.6842411885368847e+06  3.8255487510292092e+06  3.7958916104981159e+06  3.6332748594257548e+06  5.3901743837748943e+06  1.5238022438281549e+06  1.4677162595410873e+06  1.5164786748531950e+06  4.4407308873075983e+06  4.4071221799519248e+06  4.4229382448571296e+06  2.6800790591645641e+06  2.8337696899388777e+06  2.9224829111144501e+06  1.5801504135756590e+06  1.4063089440188464e+06  1.3505310087309880e+06  4.4658069030228676e+06  4.5084009314255593e+06  4.4880018490725616e+06  4.4393466269745920e+06  4.4510982345862798e+06  4.4409744904419836e+06  4.4523125817730958e+06  2.9721732969619003e+06  1.4592355140237494e+06  3.2374637714860095e+06  5.5332422808938585e+06  3.5211137642129366e+06  3.4653708560018106e+06  8.9369888094481151e+05  1.0759533292975940e+06  1.2569177341834754e+06  1.4650810910325609e+06  1.2511163716966854e+06  1.0168865763455218e+06  3.8502949543923009e+06  3.7665349666561047e+06  3.7211447512745932e+06  4.9013770968303327e+06  4.9287251790876351e+06  1.7590092079639249e+06  1.9790922239392244e+06  2.3959771219278974e+06  2.5375780698059672e+06  2.8138427286202363e+06  2.2592704717676984e+06  1.7831199161026161e+06  1.7589795582769769e+06  2.9633458293304075e+06  5.9707070471856054e+06  4.0219356269713282e+06  4.1625300456022630e+06  3.9748488507542741e+06  5.5394271603854811e+06  5.5639990179219721e+06  5.4887893253616467e+06  3.5324188534952570e+06  3.7266670103423591e+06  3.5809992240471109e+06  2.9302427600117722e+06  3.8852623955534911e+06  3.8632165687501398e+06  1.5188726292380258e+06  1.6093744313075270e+06  5.2677229578293124e+06  5.2483276251428295e+06  5.3303380349951331e+06  1.8818937076648928e+06  1.4034882108355963e+06  </DataArray> 
</PointData> 
</Piece>
</UnstructuredGrid>
</VTKFile>