<?xml version="1.0"?>
<VTKFile type="UnstructuredGrid"  version="0.1"  >
<UnstructuredGrid>
<Piece  NumberOfPoints="784" NumberOfCells="1320">
<Points>
<DataArray  type="Float64"  NumberOfComponents="3"  format="ascii">266913.131276 586512.314988 0  266738.13716 587762.325998 0  266363.132677 589012.328643 0  266175.641078 590169.601714 0  265666.575631 591040.7699119999 0  264875.64001 591687.766419 0  264900.636161 591845.049083 0  266088.14152 592012.3229499999 0  265561.959259 592661.17101 0  264288.136855 593037.368683 0  263865.194033 593999.8486949999 0  263850.641856 593236.729596 0  263625.634872 592756.525286 0  262689.574249 593299.848918 0  262475.636737 594003.0907310001 0  261934.554452 594340.929792 0  261725.631329 594932.094409 0  261729.256443 595728.498809 0  262138.136044 595012.330523 0  262288.141035 596262.333669 0  261488.994028 597511.480605 0  261234.15567 598316.338928 0  260815.635063 599014.863821 0  261400.643658 599389.7367680001 0  261322.963374 600022.185065 0  261119.455248 600931.061306 0  261607.436504 601293.0629359999 0  260807.446929 602089.899812 0  260025.642878 602988.868697 0  259613.135827 603937.3854499999 0  259050.643123 604100.987861 0  258411.880065 603988.6335979999 0  257764.357469 604449.872569 0  257971.239668 605320.429125 0  258041.396867 605740.635381 0  257188.143339 606987.394312 0  256038.141198 608112.3554550001 0  254788.141633 609087.4026939999 0  253588.140656 609812.362881 0  252338.135706 609737.4048949999 0  251088.138116 609787.404055 0  249963.12851 610287.399466 0  248613.130524 610462.365857 0  247363.132198 610687.407659 0  246113.130532 610837.411551 0  245832.347438 610918.209918 0  245016.946433 610958.5639439999 0  244313.129646 610762.372259 0  244400.622144 611378.093316 0  243939.669208 612460.8930899999 0  242960.649733 611984.892792 0  242170.381438 611919.647351 0  241888.122919 611112.375656 0  241393.380757 610467.6456149999 0  240594.157528 611306.369822 0  240525.621947 610804.648112 0  240363.123632 610512.3745050001 0  239113.123247 610262.374278 0  239813.12126 609037.412459 0  240588.122952 607812.368199 0  241013.119545 606625.9534560001 0  241454.373249 605724.888025 0  242238.120107 604687.3993 0  243088.121248 603462.362766 0  242860.319451 603007.3932640001 0  241563.116617 603812.361344 0  241778.400913 604327.642217 0  242059.837234 604824.879102 0  241475.620201 604923.2402390001 0  241462.182234 605449.881372 0  240906.219606 605674.888222 0  240241.856192 606891.125066 0  239891.734044 607841.012479 0  239048.653431 608724.889805 0  238118.054545 608974.895967 0  238888.111029 607337.406468 0  239738.119992 606212.362729 0  240288.12044 605687.4075229999 0  240380.212307 604729.521696 0  239347.309632 604603.204501 0  238888.112036 604387.408787 0  237913.11173 604687.401386 0  236784.172023 604499.882783 0  236883.408793 603717.08334 0  236154.933927 603595.565605 0  235688.103943 602912.369264 0  235763.108033 601662.366516 0  236363.110805 600412.35884 0  236738.107995 599162.356577 0  236525.607944 598482.2412899999 0  236138.109208 599362.357613 0  235725.063048 600325.4466510001 0  235091.948926 601408.5220979999 0  235188.10921 600312.366344 0  234375.602405 600833.9674270001 0  234663.109308 599912.358011 0  234138.105122 600062.365644 0  233955.307245 599029.561063 0  233338.103791 598387.401556 0  233988.09795 597862.356384 0  235138.101489 596637.3947750001 0  235563.1039 595387.392428 0  236513.103639 594212.356312 0  237163.10684 592987.3929869999 0  238313.103031 591862.3515540001 0  239513.107028 590812.3512640001 0  240638.102135 589787.387271 0  241463.109549 588587.378486 0  242294.489816 587443.735215 0  242913.101099 586512.341804 0  243544.066915 585474.859604 0  243040.448415 585184.975583 0  242438.10214 585337.38015 0  241313.102353 586562.339499 0  240538.107104 587787.382449 0  240114.641085 588588.939407 0  239388.100256 589437.382238 0  238188.104456 590512.346358 0  236938.100507 591362.349798 0  235813.10453 592537.396388 0  234864.502938 593178.7753880001 0  234463.097651 592862.357267 0  235113.0965 591662.3545979999 0  235713.101522 590412.346099 0  235777.688431 589976.7582779999 0  234943.583145 590706.265132 0  234462.482256 591490.2841159999 0  233801.497784 592112.940187 0  233388.099101 591787.394208 0  234013.093099 590437.393065 0  234776.217248 587148.7548100001 0  235163.093726 586562.3486189999 0  235313.098918 585483.229012 0  235250.59732 584662.298153 0  235588.093896 583337.379493 0  236329.432041 582199.858992 0  237188.096234 581462.3349939999 0  237463.088521 580212.335511 0  238350.592558 579057.652616 0  238591.415797 578574.847681 0  238313.094106 577612.328905 0  239229.696732 577695.769664 0  240195.161018 577513.008613 0  240614.996733 577149.8518770001 0  240663.091715 577412.332622 0  240288.092486 578662.334085 0  239942.357258 579508.095811 0  240438.100019 580212.3334220001 0  241338.095553 580387.375355 0  241238.099828 579137.369157 0  241788.097003 577887.370889 0  241983.554649 577241.9220939999 0  242054.178239 576927.8105029999 0  242588.100699 575737.366175 0  243149.324833 574898.583978 0  243695.278626 573919.517981 0  244268.494418 573724.8454239999 0  244995.134063 573930.2767810001 0  245417.314363 573391.601898 0  243450.599125 571859.479773 0  245776.797908 572599.8353060001 0  246779.639852 572973.285167 0  248034.741935 573186.082054 0  249413.10651 573162.3205520001 0  250496.922226 573271.1521899999 0  251613.105126 573237.3551319999 0  252421.824577 572846.032906 0  253256.245022 572580.4733130001 0  253739.471933 571960.9547369999 0  254174.511864 572149.8346569999 0  254484.944333 571684.194807 0  254384.108649 570891.346712 0  254344.002752 570218.26407 0  255025.609604 570829.0294979999 0  255715.005913 570489.264586 0  256218.846343 570774.828355 0  256834.349083 570508.5908 0  257390.092515 570014.308325 0  257624.431042 568493.478911 0  259355.811717 569380.021819 0  260033.372814 569617.066669 0  262679.741751 570320.699974 0  263289.115756 569524.817815 0  263463.114338 570512.301061 0  264638.198419 570687.3443539999 0  265058.220065 571334.378467 0  265447.561421 572077.90485 0  265488.125257 573137.3446020001 0  265131.937715 573963.293593 0  265432.389648 575093.068786 0  265638.122314 576338.029955 0  265750.630817 577371.8281319999 0  265738.570663 578561.9098850001 0  265875.630866 579139.630549 0  266213.129247 579862.311842 0  266563.130472 581112.314509 0  266238.135356 582362.310259 0  265938.12863 583612.320897 0  265738.131342 584762.3210189999 0  266875.638633 585365.358768 0  264018.7239399826 593650.4646671159 0  262236.3944351029 595831.1252656333 0  241846.246678 605206.1436625 0  240200.622106 608424.8903290001 0  240943.4862974102 610939.7757535663 0  236550.6094 599787.3577085 0  238528.1212051503 608102.9081793013 0  244413.4891967989 572609.5960859474 0  236382.0474488751 598808.3067022427 0  235369.601910944 600933.5380148316 0  235413.099011 591037.3503485 0  235446.2251831186 590266.6553871984 0  240475.5921005 578037.3333535 0  240413.173949154 577324.4280286073 0  240574.037899 606283.0066440001 0  263857.9179445 593618.2891454998 0  264153.4303974913 593343.916675058 0  242042.1833925 604946.7714812499 0  241650.3099635 605465.51584375 0  244613.6985165 572229.6575395 0  236631.8579695 598822.2989335 0  235140.029068 600860.444221 0  241767.7287175 604874.0596705 0  242140.15174975 604817.0853906251 0  234781.8558075 600573.1668855001 0  242091.167571125 604881.9284359375 0  234519.3558565 600373.162719 0  254604.8337712102 583989.0014118921 0  250699.5846056537 594617.3297041012 0  250540.4796469513 602258.2940568649 0  248483.7490186612 580334.7345534252 0  258549.2190328319 577893.951823392 0  257067.0067473103 590016.5327808241 0  243285.0921999099 596333.923437875 0  248333.1386145258 589098.0389905117 0  256142.8445072741 595883.3911551933 0  260245.1368072523 583315.2785712298 0  253472.3380211276 578932.2908163272 0  246432.3347504817 599884.5019511909 0  261555.9240922556 588041.186709004 0  247293.1100123104 605823.8307887657 0  246458.2798550911 593168.8646574575 0  252840.0183145193 588226.5564648228 0  249828.2874404451 584740.7888937403 0  255409.5660975206 600458.8956828594 0  260819.9733392385 574219.403683011 0  252584.2262054711 605722.6603825617 0  254049.8830611471 592547.4852571967 0  250015.4356193061 598425.2225922942 0  245872.072249477 577604.9761853142 0  262002.1583249522 579753.4663046852 0  257732.6630933878 586227.970805314 0  250242.5556457866 577017.3316409125 0  244921.6453001869 581816.6358421432 0  256520.3890639471 580904.824006648 0  240779.0970645865 599524.6679555867 0  257100.1829219198 574459.5922545703 0  239912.2630002034 595231.1172704464 0  244703.0875078634 590068.6945953515 0  242549.5490268674 592874.3693043783 0  251586.0465921376 581796.2215047925 0  246643.189997516 596527.447801719 0  251049.7658069622 591057.6752245198 0  253014.5731561695 596998.6601086652 0  238680.2197353724 584542.2309791476 0  259715.365803504 591937.1938619445 0  254097.157218761 575731.4494927844 0  246806.6408589328 586139.0877599345 0  246136.1179750556 602959.471719323 0  253520.7033332401 602835.180253843 0  244125.4295793909 607538.9817227355 0  252546.8895354472 599881.3279113505 0  258289.0983523553 600397.640191779 0  247518.7952199645 583037.3718217331 0  263140.3959879661 582529.2228421422 0  262894.8586894067 585442.3590432997 0  256968.6320599076 593040.7691844478 0  243573.0187527719 600218.2795730785 0  258888.5766127351 595139.7745218446 0  262588.7569809347 576734.8569237856 0  259318.4257992262 580601.2540325444 0  249963.3812725965 607065.7205847671 0  257494.5307999607 583482.5893534871 0  258906.4757205145 572278.8089438241 0  237751.446593475 587300.5805003279 0  255142.4708720699 604956.7580261135 0  258485.4978753244 597756.9250383095 0  255516.7820591553 587791.39641967 0  239758.4692108706 601926.8203218657 0  255873.0092222999 577739.5085867504
[...]
<PointData  Scalars="f_24704-0"> 
<DataArray  type="Float64"  Name="f_24704-0"  format="ascii">5.0364033622608278e+06  5.1384413169782599e+06  5.2541507426321059e+06  5.3467472702651117e+06  5.4086667695415299e+06  5.4997202309544543e+06  5.5308209182592528e+06  5.5559687540023904e+06  5.5558279841111172e+06  5.5747205512593156e+06  5.5847004800620554e+06  5.5825427275601588e+06  5.5997799824682204e+06  5.7672120505564474e+06  5.8918279489459256e+06  6.0128653040793957e+06  6.1884036724474262e+06  6.3942979429969899e+06  6.4208097243057471e+06  6.4516890037601450e+06  6.6154005385573097e+06  6.7461584695668835e+06  6.8961792059570160e+06  6.9783478561352817e+06  7.0174649001194602e+06  7.1019521675389390e+06  7.1266245853708135e+06  7.1695655274020461e+06  7.2569801096483823e+06  7.3179326511014868e+06  7.3368106275301464e+06  7.3898973319308590e+06  7.5221942961740652e+06  7.6274423911354858e+06  7.6462098407623358e+06  7.7269116267568097e+06  7.8141070638519842e+06  7.8901149150058879e+06  7.9395447178122634e+06  7.9833566723647257e+06  8.0464222693766197e+06  8.1056528909944985e+06  8.1604699383085705e+06  8.2107734527437752e+06  8.2561514066989552e+06  8.2656023120843545e+06  8.2894161889102245e+06  8.3180068623653129e+06  8.3381336463476792e+06  8.3468816508968072e+06  8.3490677908715541e+06  8.3511107783933720e+06  8.3513194890031395e+06  8.3555732394424714e+06  8.3631071029279744e+06  8.3625847670454439e+06  8.3627459779201476e+06  8.3655633442245275e+06  8.3581780335778035e+06  8.3313597522306601e+06  8.2960076815360952e+06  8.2631037025382230e+06  8.2041500538529139e+06  8.0950254831760228e+06  8.0568081220345125e+06  8.1133370822597686e+06  8.1391625859071966e+06  8.1464217244590297e+06  8.1540868878907980e+06  8.1664933650637856e+06  8.1846401149395118e+06  8.2512432225448238e+06  8.2727851672279928e+06  8.2828416057920055e+06  8.2848562571437294e+06  8.2739851368829831e+06  8.2413935948426379e+06  8.2030509393830001e+06  8.1488223704567458e+06  8.1316491082155649e+06  8.1307212213714877e+06  8.1321831285211407e+06  8.1322997167958207e+06  8.1285272435600795e+06  8.1255682402127832e+06  8.1221787025463330e+06  8.1094168387698596e+06  8.0759379813039145e+06  8.0201989811320137e+06  7.9949655078965249e+06  8.0164660483989203e+06  8.0281914612534950e+06  8.0321744064564202e+06  8.0288810353167765e+06  8.0302673122929102e+06  8.0267659803773956e+06  8.0259656424301062e+06  8.0208707479781723e+06  8.0182946980980700e+06  8.0123687794937221e+06  7.9616551943033505e+06  7.9007234136254778e+06  7.8105160207192507e+06  7.7098303150038077e+06  7.5707458790740333e+06  7.3770808323962120e+06  7.1246893051858423e+06  6.8397118049672488e+06  6.5419593265123218e+06  6.2733909972830592e+06  5.9203254961648127e+06  5.8141087580679022e+06  5.8791692262852378e+06  6.1497620882578297e+06  6.3429253868866907e+06  6.4251321180644883e+06  6.5005991351202559e+06  6.5871871620825697e+06  6.6484250591697814e+06  6.6905563967086300e+06  6.6996995471533816e+06  6.6997873596158549e+06  6.6856668292897167e+06  6.6469464657723689e+06  6.6329842170895552e+06  6.6617912962034708e+06  6.6799795167800887e+06  6.6856929297818001e+06  6.6856909073471380e+06  6.6669851276184544e+06  6.5416947247750517e+06  6.4985706300251568e+06  6.4213075177956084e+06  6.3736658077315781e+06  6.3053009429386454e+06  6.2301595750944875e+06  6.1448688261496956e+06  6.0795279738175701e+06  6.0552243174566980e+06  6.0604913089398937e+06  6.0674451815893780e+06  6.0665851887660893e+06  6.0695635850173431e+06  6.0711632723809201e+06  6.0709658416631212e+06  6.0580654032245828e+06  6.0125834472973365e+06  5.8706796112671765e+06  5.5268499129496906e+06  5.1961676764829019e+06  4.9747524411278721e+06  4.8694898399516465e+06  4.8294372189223273e+06  4.6870252435435075e+06  4.5913507425563056e+06  4.5170033502347944e+06  4.4918557993549332e+06  4.4110088872592570e+06  4.3251362768677929e+06  4.3379869624910243e+06  4.3042801530566718e+06  4.2164857818272393e+06  4.0140469024969093e+06  3.7764035438537924e+06  3.6192615664831176e+06  3.4941263475853736e+06  3.4546311152361860e+06  3.4746326922162850e+06  3.5214076686720927e+06  3.5571307565536425e+06  3.6536550480181635e+06  3.7158142355455095e+06  3.7231456961773341e+06  3.7263893037216668e+06  3.7638603826924339e+06  3.8026761545439982e+06  3.8947494677765053e+06  3.9959952037853235e+06  4.0610820068037072e+06  4.0680291837986996e+06  4.0850496210989915e+06  4.1834241440435303e+06  4.2018959056231286e+06  4.1997183292260570e+06  4.2119512523844512e+06  4.2092286430112114e+06  4.1989503139439961e+06  4.1727684012745144e+06  4.1268161320378869e+06  4.0669949164397484e+06  4.0275344890269572e+06  4.0123249211794063e+06  4.0265251738083004e+06  4.0615455019475105e+06  4.1235746841648635e+06  4.2208185445977682e+06  4.3355045521518439e+06  4.5236783305816576e+06  4.7894488158693099e+06  4.9603164475202374e+06  5.5840613666827651e+06  6.4297969976589251e+06  8.2373662464581486e+06  8.3477364175682049e+06  8.3622121250219885e+06  8.0505082255778387e+06  8.2819907895684037e+06  4.3313296279725470e+06  8.0043163811509302e+06  8.0313755753317242e+06  6.6692783313765693e+06  6.6434901162032429e+06  6.0677409412341043e+06  6.0708284333849074e+06  8.2235986792969033e+06  5.5840507135381009e+06  5.5822689417502470e+06  8.2216943103936026e+06  8.2513342264380697e+06  4.3313367925643288e+06  8.0037042104591830e+06  8.0313779297317900e+06  8.1475733038697168e+06  8.2132074681573696e+06  8.0296631512818551e+06  8.2175103395125689e+06  8.0296418282368584e+06  4.0416099253677139e+06  6.7278387951025376e+06  7.6790980797867123e+06  4.3174328178208396e+06  2.9562214564439878e+06  4.8484694124992872e+06  7.6029785837813849e+06  6.0445992676214557e+06  6.4917150407244554e+06  4.0781930699174022e+06  3.3235666718040402e+06  7.7081963981260555e+06  5.0066784712519972e+06  8.0858886210438507e+06  6.9727895936564859e+06  4.8163403591300165e+06  5.0068575081249177e+06  7.1246136104616765e+06  3.7992463069215487e+06  7.8444905832981970e+06  5.8876142162333829e+06  7.2999333337218957e+06  4.4072198061484415e+06  3.5479106260488229e+06  4.1191589528736933e+06  3.6162439979129550e+06  5.1727467202783627e+06  3.5950361581743648e+06  7.9524345510722678e+06  3.4350679984999751e+06  7.7173146261779079e+06  6.7035803256082656e+06  7.3098737686578017e+06  4.2296889958276302e+06  7.3722589597677719e+06  5.9881532226527911e+06  6.8515789544171644e+06  6.2106852357551157e+06  5.5922093364644647e+06  3.1433358413672517e+06  5.7294585298154447e+06  7.9649568371125581e+06  7.5553913802029276e+06  8.2585528366787042e+06  7.2520941555697555e+06  7.0827495931062475e+06  5.0495496885988815e+06  4.1441351518518641e+06  4.7123008999149567e+06  5.7911682453190144e+06  7.8884700711734574e+06  6.2898931383321239e+06  3.7515044845026927e+06  3.4833490394338202e+06  8.0278271143681994e+06  3.9278276360321501e+06  3.8932793881232245e+06  6.4571263754111817e+06  7.6776806316349059e+06  6.7397570568010425e+06  4.1756144022618942e+06  8.0789256613047151e+06  3.0225530060666595e+06  5.4322550241239415e+06  5.6805999503885666e+06  6.6035689517357126e+06  4.9409810062563000e+06  3.8604069857789404e+06  5.1131867856480684e+06  5.0381642071212996e+06  3.8365022516040797e+06  4.0108663803313184e+06  4.5280874039262822e+06  4.7162452293068953e+06  8.2017643054647567e+06  7.8831213825721992e+06  4.4789917778924946e+06  8.1390217825320372e+06  7.6564819742286261e+06  7.6169750688963272e+06  7.9105340684739789e+06  6.0183241947699748e+06  5.5275249920598958e+06  6.8186500082917605e+06  7.3274646992830215e+06  5.3200049037229968e+06  7.8833962611444630e+06  4.2075458447850822e+06  6.4916411391952727e+06  4.1036061972477194e+06  3.9987337276361980e+06  7.0172330113903489e+06  7.7866044415717404e+06  6.5734257008041972e+06  7.3099105590252765e+06  6.2549748795773415e+06  7.5024358097542711e+06  3.3281372783772349e+06  4.5819179845036929e+06  4.6127887456982667e+06  7.8724350434799800e+06  7.0334237931498429e+06  3.9701584595067911e+06  7.9137463493909938e+06  6.2509149379360080e+06  8.0316319344235342e+06  3.9939623072625161e+06  8.2228046074610343e+06  8.2169196780217662e+06  4.7358463955088500e+06  5.5427695451653115e+06  8.2200604279402550e+06  8.2594879000068484e+06  7.9818732609205144e+06  8.0019048612799086e+06  6.6152650185762877e+06  3.5893343718928918e+06  7.9981432617668677e+06  7.6763296613065870e+06  4.8154584007288860e+06  5.5256743579394799e+06  5.3467572990207328e+06  8.2596032639106940e+06  8.2155294708101191e+06  6.0553118140720669e+06  8.1159395249762861e+06  8.1574071654720027e+06  8.1880358961125482e+06  8.2624853544944497e+06  5.6405111460151169e+06  4.2382328044463387e+06  6.6262508291162476e+06  3.7949346210310603e+06  5.4511281186626162e+06  3.9701854571479135e+06  6.5350724446370779e+06  8.3390332872934472e+06  6.3471156511952775e+06  6.6437744149889927e+06  7.9872099233894078e+06  5.7634882130598091e+06  4.0280258209777409e+06  6.6310379866916155e+06  3.3404920541570373e+06  4.5126871738691330e+06  8.0004111639428176e+06  7.9545558130571581e+06  6.0263105868605496e+06  8.3370753268345110e+06  3.6691996166698420e+06  8.0618886147405934e+06  6.6719052493309872e+06  4.1765011687066993e+06  3.6033563142054141e+06  3.3511862156825135e+06  7.3062019094550060e+06  8.0438300966279125e+06  7.9892365863648662e+06  7.0399482033089362e+06  8.2451008730486138e+06  6.3042671043209704e+06  4.3227906535324603e+06  4.3225914052960109e+06  3.9343270458164932e+06  8.2196565078439740e+06  8.2297387296238244e+06  8.2337786868461706e+06  7.6516633514659200e+06  7.9329943395182882e+06  8.2195476343508735e+06  8.1388500985237593e+06  6.4032923177946452e+06  8.3605821561016971e+06  8.3590680144167207e+06  5.8195110260486808e+06  3.9469724823187534e+06  6.0453764843628621e+06  8.0752947623344492e+06  5.8626890297860969e+06  6.1928567559988536e+06  8.3420507782347789e+06  5.9691843548867833e+06  7.4147946895081168e+06  4.5312943211133340e+06  4.8386034484544620e+06  4.7543342843280435e+06  4.9274175628456417e+06  8.0185101236598091e+06  5.5195376129859136e+06  5.5589174283295963e+06  5.4740258263893183e+06  5.5523872629401786e+06  5.3823693934819298e+06  4.1680361081726863e+06  4.0724326598965181e+06  5.5884758697956614e+06  4.7003913928753380e+06  6.6969226790999770e+06  6.6960398766506230e+06  8.3540511372153433e+06  6.9671999645351591e+06  6.6288233488258133e+06  5.8654637632839866e+06  5.7351290877792891e+06  5.7646808004036974e+06  5.8336377793689454e+06  5.7536284528716579e+06  5.7925734626212213e+06  6.0153319599133637e+06  5.8237191834712652e+06  5.9161821607238827e+06  6.1672075117243435e+06  6.0392344121867390e+06  5.3325758945337944e+06  5.6265190070400657e+06  3.8862954493833128e+06  4.0050961974165365e+06  3.8411815689172102e+06  3.6967660883234427e+06  3.7274979711141656e+06  3.5496109054316906e+06  3.6449544216723428e+06  3.5726877954201624e+06  3.4160404923578990e+06  3.4369995886040130e+06  4.0213172334736618e+06  4.0176020018455400e+06  4.0053466458172277e+06  4.0125875643540793e+06  3.9963695244973442e+06  4.0415476674652295e+06  4.0153222696075831e+06  3.9897370036398354e+06  4.0930694528188985e+06  4.0310510339053315e+06  4.0833531428164667e+06  4.0607749556990312e+06  4.1478643849030328e+06  4.3061822006926266e+06  4.1983148675915478e+06  3.9046411729646483e+06  3.8737167967355144e+06  3.9139552605696912e+06  4.1085200601894986e+06  7.0314982792991465e+06  6.7936727915455652e+06  6.6654727683785595e+06  6.8748041245214613e+06  7.4865477923925854e+06  7.7900743484398127e+06  7.6479770572653683e+06  7.7863857617544122e+06  4.6938586554920031e+06  4.0882859685780150e+06  4.1089615032331841e+06  4.4226636593989255e+06  3.2362251258933209e+06  3.1876006597056361e+06  3.1145629267250095e+06  3.1750692790299244e+06  2.9366714455912067e+06  3.0766551715019429e+06  5.2532909119882006e+06  5.3222965778465010e+06  4.4704294286877429e+06  4.8645911405051630e+06  4.7293183923224024e+06  7.6623406987402160e+06  7.4645531637135837e+06  6.0096625337860575e+06  5.8903383130949764e+06  6.3293213464429313e+06  5.7009689646013798e+06  6.3200669380710227e+06  6.1643290608718870e+06  6.2078944181579221e+06  6.6562281922500543e+06  6.4683270375572797e+06  3.6992179957892252e+06  4.0800948855229346e+06  4.4005167903773915e+06  3.7751061181648453e+06  3.3990626528876889e+06  3.4513127852854892e+06  3.7666510566456071e+06  3.1102404373964178e+06  3.1557030618855255e+06  3.5976326972395601e+06  3.5502127229755786e+06  7.5182122389393300e+06  7.8434652673165072e+06  7.6610320920356866e+06  7.8678796462848205e+06  8.0327595372446356e+06  7.1851910286083324e+06  6.7821264727799725e+06  7.1499385040958151e+06  7.0032709951914465e+06  4.4210783918561367e+06  4.8879635104001742e+06  5.0754243576624263e+06  4.4457340047155702e+06  7.3479680002855416e+06  7.1598668517108923e+06  7.0984757772531752e+06  6.9580676650261162e+06  3.5908365972540830e+06  3.7343378933025193e+06  5.9188123961360008e+06  5.7869360632086173e+06  5.4850465741441417e+06  7.3329468814744046e+06  7.0803358695334634e+06  7.4674152947252775e+06  7.1604993424979923e+06  4.6572213581709461e+06  4.2006879655406605e+06  4.1881099708228395e+06  4.4523280658273576e+06  4.3101804635836110e+06  4.4828635654740538e+06  3.7801086535642608e+06  3.6093567915512449e+06  3.4312791468275986e+06  3.3721462795136641e+06  3.7574881787957656e+06  3.7798484561386919e+06  4.0109408459916371e+06  4.0458770122326547e+06  4.3903169700676566e+06  3.9326646116184243e+06  3.2769262812701170e+06  3.6796383344930899e+06  3.7950335730629256e+06  3.8127039021891565e+06  3.3935544406913961e+06  3.6234624729040279e+06  5.1022168585643163e+06  5.4453762771832915e+06  5.0418863361206390e+06  4.8879828790422771e+06  3.5245352773017790e+06  3.7997788987028399e+06  3.2390824297829638e+06  3.7140752438396285e+06  3.2342975230896953e+06  3.6863269060429912e+06  3.1050405781121217e+06  3.3300542684050389e+06  3.5210813277957714e+06  3.6397523469326692e+06  3.3823570221537314e+06  6.6400891444216380e+06  6.4878653809035858e+06  6.8751192787722955e+06  6.8382101748972218e+06  7.3090794345167121e+06  4.0246821227540872e+06  4.0323564486524886e+06  7.2036992529715430e+06  6.3208070592136336e+06  5.5354147206690982e+06  5.6220378458902640e+06  6.1189918929035394e+06  7.0482056296800226e+06  6.8254165139833242e+06  6.1090295411068629e+06  6.0993472780643320e+06  5.6614430238398444e+06  5.1610966231179768e+06  3.0625800152217965e+06  3.2321605918652555e+06  3.2313024667103374e+06  5.5691659552359283e+06  5.9944504741303083e+06  7.8056604099096041e+06  7.9251646523813074e+06  7.4062114007246280e+06  7.7339517844306845e+06  7.4314363935101070e+06  7.4556240032910798e+06  7.0086687397706332e+06  6.9393582087766649e+06  4.8045789759337222e+06  4.0142484934387594e+06  5.3725930324363625e+06  5.9409657228180747e+06  3.5436887979047704e+06  3.8456130337477322e+06  3.8643220098434216e+06  3.7826051140752095e+06  4.1727323862206386e+06  4.5639495305821020e+06  4.3331222943242248e+06  4.1146038853193205e+06  5.1563056476506246e+06  5.6378123192777121e+06  5.7196544166142382e+06  5.7365770513339899e+06  5.8283529839642942e+06  6.5872571441232022e+06  6.4300410012348015e+06  4.7673227243912462e+06  4.1751269392908337e+06  3.9003484541689469e+06  4.2295330699531129e+06  3.9857378862513904e+06  3.8309906499844049e+06  4.6174160129004922e+06  4.8468348516823854e+06  4.3645759831283782e+06  7.7587206071574800e+06  4.7408730309820892e+06  4.2477891324049942e+06  6.4222281240691375e+06  6.8155962976881666e+06  7.1777070066665122e+06  7.0008916233231556e+06  3.9647337575417575e+06  3.9558399882884850e+06  3.4647386430218937e+06  5.6981134808804123e+06  3.9411376306312256e+06  5.8587979026490459e+06  3.4713784361226377e+06  3.3185988482697126e+06  5.8883642650718689e+06  3.9601343425780758e+06  6.9547073126097163e+06  3.0749922551859342e+06  3.0187537790972935e+06  2.9771436852055094e+06  2.9293081837982927e+06  3.0592843323140508e+06  6.2426696846077098e+06  3.3295584111576905e+06  3.5294892218607920e+06  3.4212042323356802e+06  7.7558635802856954e+06  5.4476986234333217e+06  4.6088731567466110e+06  4.6179943497007973e+06  4.7548799973977413e+06  3.5689860540929604e+06  7.1691615227275332e+06  7.2300918821095582e+06  3.5663837036416763e+06  3.6429186152144452e+06  3.9633658127777344e+06  3.9757698951907498e+06  3.4342506944368547e+06  4.9913830665675392e+06  5.9952955530417729e+06  6.1617152640780974e+06  5.8017974439705480e+06  6.2212511320871552e+06  3.1775663619911298e+06  3.1692078392372280e+06  3.1837644517306234e+06  3.1821556371470797e+06  7.1285023008883540e+06  3.3308484594242852e+06  3.5015362672455139e+06  3.6423779851662270e+06  4.3064564824883370e+06  4.2725868849348603e+06  4.3511254205104355e+06  4.2087113895125045e+06  3.0873744301162516e+06  3.0140607156176353e+06  3.0378380058649243e+06  4.5171413227004996e+06  7.5672054625551207e+06  7.6384100894885780e+06  7.7145439921568846e+06  5.9887776959807398e+06  6.9048154090608163e+06  4.4552014102545585e+06  4.0406809379972587e+06  3.9389511410166500e+06  4.1140057745170211e+06  6.6975967524396591e+06  6.2134347146907551e+06  6.3421378712783996e+06  3.2012057366536004e+06  3.1943690240984587e+06  3.2977527417354528e+06  4.5053010341253318e+06  4.7349950076576453e+06  4.6803607818818418e+06  4.4055505155011797e+06  6.9274812360137952e+06  3.9777491377449934e+06  3.9031439352022544e+06  3.9505874464919674e+06  5.8376972934482116e+06  5.7892533322788123e+06  5.8082536125350306e+06  3.5295962717711208e+06  3.6424977945664078e+06  3.7464774868835867e+06  3.2908969311369634e+06  3.9688046396987126e+06  3.8998096594867678e+06  5.9392674144842513e+06  6.0655459719254030e+06  5.9988162060660683e+06  5.8994828313051006e+06  5.9132191440388216e+06  5.9268623044733824e+06  5.8866499700358799e+06  3.8325963241794026e+06  3.9689988964629243e+06  3.9108620540867145e+06  7.0962396881243540e+06  4.2560622722564265e+06  4.1706250915591954e+06  3.1173147185874800e+06  3.0174634026078796e+06  3.3132221113117849e+06  3.3381049886160013e+06  3.0464599815933746e+06  2.9858679129819255e+06  4.5695458846595585e+06  4.3771918332753442e+06  4.5254768201309694e+06  6.1663907844995083e+06  6.2950159458894776e+06  3.7146044441518444e+06  3.9011531922662468e+06  3.2140536305799661e+06  3.3084713680554945e+06  3.6517914645475247e+06  3.1663252201049011e+06  3.1902186492278464e+06  3.0735431281061112e+06  3.7908072339014192e+06  7.7347337640460217e+06  4.4764027759483978e+06  4.7106646503033163e+06  4.5896866559551610e+06  7.0488505411334587e+06  7.0807170224489812e+06  6.9723513612994850e+06  4.3104129353870759e+06  4.6053789037219873e+06  4.3444184745675121e+06  3.7228636990481508e+06  4.8391988337060325e+06  4.8192065679723686e+06  3.1176831576452334e+06  3.2256263609065400e+06  6.7605731819132334e+06  6.7293681964175180e+06  6.8456497327073710e+06  3.2244879304697202e+06  3.8974134936028426e+06  </DataArray> 
</PointData> 
</Piece>
</UnstructuredGrid>
</VTKFile>