<?xml version="1.0"?>
<VTKFile type="UnstructuredGrid"  version="0.1"  >
<UnstructuredGrid>
<Piece  NumberOfPoints="784" NumberOfCells="1320">
<Points>
<DataArray  type="Float64"  NumberOfComponents="3"  format="ascii">266913.131276 586512.314988 0  266738.13716 587762.325998 0  266363.132677 589012.328643 0  266175.641078 590169.601714 0  265666.575631 591040.7699119999 0  264875.64001 591687.766419 0  264900.636161 591845.049083 0  266088.14152 592012.3229499999 0  265561.959259 592661.17101 0  264288.136855 593037.368683 0  263865.194033 593999.8486949999 0  263850.641856 593236.729596 0  263625.634872 592756.525286 0  262689.574249 593299.848918 0  262475.636737 594003.0907310001 0  261934.554452 594340.929792 0  261725.631329 594932.094409 0  261729.256443 595728.498809 0  262138.136044 595012.330523 0  262288.141035 596262.333669 0  261488.994028 597511.480605 0  261234.15567 598316.338928 0  260815.635063 599014.863821 0  261400.643658 599389.7367680001 0  261322.963374 600022.185065 0  261119.455248 600931.061306 0  261607.436504 601293.0629359999 0  260807.446929 602089.899812 0  260025.642878 602988.868697 0  259613.135827 603937.3854499999 0  259050.643123 604100.987861 0  258411.880065 603988.6335979999 0  257764.357469 604449.872569 0  257971.239668 605320.429125 0  258041.396867 605740.635381 0  257188.143339 606987.394312 0  256038.141198 608112.3554550001 0  254788.141633 609087.4026939999 0  253588.140656 609812.362881 0  252338.135706 609737.4048949999 0  251088.138116 609787.404055 0  249963.12851 610287.399466 0  248613.130524 610462.365857 0  247363.132198 610687.407659 0  246113.130532 610837.411551 0  245832.347438 610918.209918 0  245016.946433 610958.5639439999 0  244313.129646 610762.372259 0  244400.622144 611378.093316 0  243939.669208 612460.8930899999 0  242960.649733 611984.892792 0  242170.381438 611919.647351 0  241888.122919 611112.375656 0  241393.380757 610467.6456149999 0  240594.157528 611306.369822 0  240525.621947 610804.648112 0  240363.123632 610512.3745050001 0  239113.123247 610262.374278 0  239813.12126 609037.412459 0  240588.122952 607812.368199 0  241013.119545 606625.9534560001 0  241454.373249 605724.888025 0  242238.120107 604687.3993 0  243088.121248 603462.362766 0  242860.319451 603007.3932640001 0  241563.116617 603812.361344 0  241778.400913 604327.642217 0  242059.837234 604824.879102 0  241475.620201 604923.2402390001 0  241462.182234 605449.881372 0  240906.219606 605674.888222 0  240241.856192 606891.125066 0  239891.734044 607841.012479 0  239048.653431 608724.889805 0  238118.054545 608974.895967 0  238888.111029 607337.406468 0  239738.119992 606212.362729 0  240288.12044 605687.4075229999 0  240380.212307 604729.521696 0  239347.309632 604603.204501 0  238888.112036 604387.408787 0  237913.11173 604687.401386 0  236784.172023 604499.882783 0  236883.408793 603717.08334 0  236154.933927 603595.565605 0  235688.103943 602912.369264 0  235763.108033 601662.366516 0  236363.110805 600412.35884 0  236738.107995 599162.356577 0  236525.607944 598482.2412899999 0  236138.109208 599362.357613 0  235725.063048 600325.4466510001 0  235091.948926 601408.5220979999 0  235188.10921 600312.366344 0  234375.602405 600833.9674270001 0  234663.109308 599912.358011 0  234138.105122 600062.365644 0  233955.307245 599029.561063 0  233338.103791 598387.401556 0  233988.09795 597862.356384 0  235138.101489 596637.3947750001 0  235563.1039 595387.392428 0  236513.103639 594212.356312 0  237163.10684 592987.3929869999 0  238313.103031 591862.3515540001 0  239513.107028 590812.3512640001 0  240638.102135 589787.387271 0  241463.109549 588587.378486 0  242294.489816 587443.735215 0  242913.101099 586512.341804 0  243544.066915 585474.859604 0  243040.448415 585184.975583 0  242438.10214 585337.38015 0  241313.102353 586562.339499 0  240538.107104 587787.382449 0  240114.641085 588588.939407 0  239388.100256 589437.382238 0  238188.104456 590512.346358 0  236938.100507 591362.349798 0  235813.10453 592537.396388 0  234864.502938 593178.7753880001 0  234463.097651 592862.357267 0  235113.0965 591662.3545979999 0  235713.101522 590412.346099 0  235777.688431 589976.7582779999 0  234943.583145 590706.265132 0  234462.482256 591490.2841159999 0  233801.497784 592112.940187 0  233388.099101 591787.394208 0  234013.093099 590437.393065 0  234776.217248 587148.7548100001 0  235163.093726 586562.3486189999 0  235313.098918 585483.229012 0  235250.59732 584662.298153 0  235588.093896 583337.379493 0  236329.432041 582199.858992 0  237188.096234 581462.3349939999 0  237463.088521 580212.335511 0  238350.592558 579057.652616 0  238591.415797 578574.847681 0  238313.094106 577612.328905 0  239229.696732 577695.769664 0  240195.161018 577513.008613 0  240614.996733 577149.8518770001 0  240663.091715 577412.332622 0  240288.092486 578662.334085 0  239942.357258 579508.095811 0  240438.100019 580212.3334220001 0  241338.095553 580387.375355 0  241238.099828 579137.369157 0  241788.097003 577887.370889 0  241983.554649 577241.9220939999 0  242054.178239 576927.8105029999 0  242588.100699 575737.366175 0  243149.324833 574898.583978 0  243695.278626 573919.517981 0  244268.494418 573724.8454239999 0  244995.134063 573930.2767810001 0  245417.314363 573391.601898 0  243450.599125 571859.479773 0  245776.797908 572599.8353060001 0  246779.639852 572973.285167 0  248034.741935 573186.082054 0  249413.10651 573162.3205520001 0  250496.922226 573271.1521899999 0  251613.105126 573237.3551319999 0  252421.824577 572846.032906 0  253256.245022 572580.4733130001 0  253739.471933 571960.9547369999 0  254174.511864 572149.8346569999 0  254484.944333 571684.194807 0  254384.108649 570891.346712 0  254344.002752 570218.26407 0  255025.609604 570829.0294979999 0  255715.005913 570489.264586 0  256218.846343 570774.828355 0  256834.349083 570508.5908 0  257390.092515 570014.308325 0  257624.431042 568493.478911 0  259355.811717 569380.021819 0  260033.372814 569617.066669 0  262679.741751 570320.699974 0  263289.115756 569524.817815 0  263463.114338 570512.301061 0  264638.198419 570687.3443539999 0  265058.220065 571334.378467 0  265447.561421 572077.90485 0  265488.125257 573137.3446020001 0  265131.937715 573963.293593 0  265432.389648 575093.068786 0  265638.122314 576338.029955 0  265750.630817 577371.8281319999 0  265738.570663 578561.9098850001 0  265875.630866 579139.630549 0  266213.129247 579862.311842 0  266563.130472 581112.314509 0  266238.135356 582362.310259 0  265938.12863 583612.320897 0  265738.131342 584762.3210189999 0  266875.638633 585365.358768 0  264018.7239399826 593650.4646671159 0  262236.3944351029 595831.1252656333 0  241846.246678 605206.1436625 0  240200.622106 608424.8903290001 0  240943.4862974102 610939.7757535663 0  236550.6094 599787.3577085 0  238528.1212051503 608102.9081793013 0  244413.4891967989 572609.5960859474 0  236382.0474488751 598808.3067022427 0  235369.601910944 600933.5380148316 0  235413.099011 591037.3503485 0  235446.2251831186 590266.6553871984 0  240475.5921005 578037.3333535 0  240413.173949154 577324.4280286073 0  240574.037899 606283.0066440001 0  263857.9179445 593618.2891454998 0  264153.4303974913 593343.916675058 0  242042.1833925 604946.7714812499 0  241650.3099635 605465.51584375 0  244613.6985165 572229.6575395 0  236631.8579695 598822.2989335 0  235140.029068 600860.444221 0  241767.7287175 604874.0596705 0  242140.15174975 604817.0853906251 0  234781.8558075 600573.1668855001 0  242091.167571125 604881.9284359375 0  234519.3558565 600373.162719 0  254604.8337712102 583989.0014118921 0  250699.5846056537 594617.3297041012 0  250540.4796469513 602258.2940568649 0  248483.7490186612 580334.7345534252 0  258549.2190328319 577893.951823392 0  257067.0067473103 590016.5327808241 0  243285.0921999099 596333.923437875 0  248333.1386145258 589098.0389905117 0  256142.8445072741 595883.3911551933 0  260245.1368072523 583315.2785712298 0  253472.3380211276 578932.2908163272 0  246432.3347504817 599884.5019511909 0  261555.9240922556 588041.186709004 0  247293.1100123104 605823.8307887657 0  246458.2798550911 593168.8646574575 0  252840.0183145193 588226.5564648228 0  249828.2874404451 584740.7888937403 0  255409.5660975206 600458.8956828594 0  260819.9733392385 574219.403683011 0  252584.2262054711 605722.6603825617 0  254049.8830611471 592547.4852571967 0  250015.4356193061 598425.2225922942 0  245872.072249477 577604.9761853142 0  262002.1583249522 579753.4663046852 0  257732.6630933878 586227.970805314 0  250242.5556457866 577017.3316409125 0  244921.6453001869 581816.6358421432 0  256520.3890639471 580904.824006648 0  240779.0970645865 599524.6679555867 0  257100.1829219198 574459.5922545703 0  239912.2630002034 595231.1172704464 0  244703.0875078634 590068.6945953515 0  242549.5490268674 592874.3693043783 0  251586.0465921376 581796.2215047925 0  246643.189997516 596527.447801719 0  251049.7658069622 591057.6752245198 0  253014.5731561695 596998.6601086652 0  238680.2197353724 584542.2309791476 0  259715.365803504 591937.1938619445 0  254097.157218761 575731.4494927844 0  246806.6408589328 586139.0877599345 0  246136.1179750556 602959.471719323 0  253520.7033332401 602835.180253843 0  244125.4295793909 607538.9817227355 0  252546.8895354472 599881.3279113505 0  258289.0983523553 600397.640191779 0  247518.7952199645 583037.3718217331 0  263140.3959879661 582529.2228421422 0  262894.8586894067 585442.3590432997 0  256968.6320599076 593040.7691844478 0  243573.0187527719 600218.2795730785 0  258888.5766127351 595139.7745218446 0  262588.7569809347 576734.8569237856 0  259318.4257992262 580601.2540325444 0  249963.3812725965 607065.7205847671 0  257494.5307999607 583482.5893534871 0  258906.4757205145 572278.8089438241 0  237751.446593475 587300.5805003279 0  255142.4708720699 604956.7580261135 0  258485.4978753244 597756.9250383095 0  255516.7820591553 587791.39641967 0  239758.4692108706 601926.8203218657 0  255873.0092222999 577739.5085867504
[...]
<PointData  Scalars="f_32-0"> 
<DataArray  type="Float64"  Name="f_32-0"  format="ascii">2.8763317793097053e+07  2.8940727190791283e+07  2.9145206021021500e+07  2.9307696877214622e+07  2.9416359419424985e+07  2.9573209386857521e+07  2.9624533091777284e+07  2.9663838724901251e+07  2.9664251790521279e+07  2.9698793595354032e+07  2.9714979724188901e+07  2.9711919194333427e+07  2.9742678152594522e+07  3.0008407228844974e+07  3.0195045952468935e+07  3.0371315832452264e+07  3.0622980711584769e+07  3.0915028925503891e+07  3.0952525528321698e+07  3.0996154227729414e+07  3.1223680769330561e+07  3.1402720103698187e+07  3.1603410226110857e+07  3.1710282895257026e+07  3.1760384992344875e+07  3.1865825515909314e+07  3.1896073731679671e+07  3.1947610728359338e+07  3.2047218032694969e+07  3.2113586095647532e+07  3.2133464735414457e+07  3.2187778979163602e+07  3.2317468482304256e+07  3.2417421792646099e+07  3.2434963655617725e+07  3.2508578959752340e+07  3.2585432812335618e+07  3.2649818700244289e+07  3.2690002612220544e+07  3.2723211873346735e+07  3.2770014457927983e+07  3.2813803850204762e+07  3.2853587019145790e+07  3.2889755553917766e+07  3.2922361466851477e+07  3.2929184433285162e+07  3.2946393506641429e+07  3.2967383259616628e+07  3.2982813482822459e+07  3.2989646277226303e+07  3.2991094919388257e+07  3.2992458012022071e+07  3.2992052868699536e+07  3.2994309714222897e+07  3.3000017811176941e+07  3.2999550400312360e+07  3.2999535132443074e+07  3.3001629679655034e+07  3.2995271498482451e+07  3.2971942540714212e+07  3.2940266468735609e+07  3.2910012616046023e+07  3.2854045169872604e+07  3.2740761177728862e+07  3.2688666570770014e+07  3.2721837095493183e+07  3.2743575144583400e+07  3.2749817261587586e+07  3.2756377221161053e+07  3.2767141606880415e+07  3.2782943339804512e+07  3.2840998829906512e+07  3.2859765157997150e+07  3.2868600807626992e+07  3.2870392452913325e+07  3.2860820349908262e+07  3.2832425847145047e+07  3.2798986008100200e+07  3.2750750954290215e+07  3.2733243301013757e+07  3.2731175504679039e+07  3.2730916632056080e+07  3.2730332631086383e+07  3.2725993019366171e+07  3.2722346919854540e+07  3.2718549525060493e+07  3.2704807931321651e+07  3.2668830706731088e+07  3.2606836397713471e+07  3.2575528232519638e+07  3.2595784320892490e+07  3.2607697274751570e+07  3.2611812966395993e+07  3.2608419246785179e+07  3.2609890571512025e+07  3.2606233185579460e+07  3.2605403619966302e+07  3.2600031016202826e+07  3.2597294910630204e+07  3.2591004639012542e+07  3.2536374479419872e+07  3.2468653214650594e+07  3.2365239943714432e+07  3.2246668771642070e+07  3.2076668147423394e+07  3.1831471889102787e+07  3.1499526931765642e+07  3.1112149585333150e+07  3.0690069799758106e+07  3.0290052286609620e+07  2.9702878805401374e+07  2.9391212689596519e+07  2.9316360841203075e+07  2.9489619587651834e+07  2.9690563388353169e+07  2.9781835333554935e+07  2.9866062061950643e+07  2.9962248166241646e+07  3.0029882059747875e+07  3.0076630697894335e+07  3.0087039882348265e+07  3.0087143925681598e+07  3.0071184266704991e+07  3.0028599823911428e+07  3.0013713798189174e+07  3.0045974026496574e+07  3.0066225617563002e+07  3.0072711778258882e+07  3.0072725538208798e+07  3.0051775860103391e+07  2.9917173664692674e+07  2.9871942291208174e+07  2.9793098024060998e+07  2.9745925222893320e+07  2.9679630516131211e+07  2.9608687931719009e+07  2.9531991059605043e+07  2.9479378828792334e+07  2.9465423486522492e+07  2.9474085837640900e+07  2.9483025063471321e+07  2.9482213664360393e+07  2.9485803900587637e+07  2.9487610613762025e+07  2.9487388841047496e+07  2.9473032196657356e+07  2.9424492670579322e+07  2.9287870413027681e+07  2.8986397581539769e+07  2.8701300306893464e+07  2.8500440988391642e+07  2.8401793983141623e+07  2.8363654203417201e+07  2.8225227000974514e+07  2.8129919851620659e+07  2.8054402715955451e+07  2.8029217194055330e+07  2.7949023629925516e+07  2.7860980610589363e+07  2.7866991440469284e+07  2.7838265039029531e+07  2.7758359062741876e+07  2.7572355644520916e+07  2.7343506647752114e+07  2.7166134060245238e+07  2.6971660365554910e+07  2.6845967818645470e+07  2.6760260621509783e+07  2.6725977810566097e+07  2.6715053685511511e+07  2.6704368662046995e+07  2.6703996041169949e+07  2.6704004751430117e+07  2.6705141528923310e+07  2.6709731664784368e+07  2.6717050759198058e+07  2.6736451424868561e+07  2.6760134099572249e+07  2.6778551572599247e+07  2.6786692590449773e+07  2.6799118713886995e+07  2.6854789925153330e+07  2.6861779401362207e+07  2.6864500656432942e+07  2.6873084308176231e+07  2.6874481416391943e+07  2.6875153330096070e+07  2.6873079702982433e+07  2.6867195286688372e+07  2.6859296365409378e+07  2.6853647273929566e+07  2.6865509744056143e+07  2.6942514279780529e+07  2.7030306843031149e+07  2.7162924542738836e+07  2.7361490391127188e+07  2.7586250417614710e+07  2.7915346180426508e+07  2.8356875155657656e+07  2.8633808163567260e+07  2.9714027621062100e+07  3.0965222116520476e+07  3.2885884801991582e+07  3.2986243790388297e+07  3.2999297614688125e+07  3.2641025876516625e+07  3.2867850997968204e+07  2.7861346750163332e+07  3.2583808651659664e+07  3.2610984729116820e+07  3.0053029056840356e+07  3.0025657240092233e+07  2.9483774898897104e+07  2.9487234536439899e+07  3.2816920474612594e+07  2.9714008164387025e+07  2.9711303709000822e+07  3.2870966922517888e+07  3.2899034457600046e+07  2.7861350812626481e+07  3.2587423787024219e+07  3.2610986862119082e+07  3.2750790375683039e+07  3.2862812286097497e+07  3.2609254882201400e+07  3.2866953783864483e+07  3.2609232799239308e+07  2.8025265127935089e+07  3.1181765132757112e+07  3.2423885397740830e+07  2.8034634020830419e+07  2.6737434851508848e+07  2.9155853052269477e+07  3.2158838157768924e+07  3.0109931761702865e+07  3.1094195056559637e+07  2.7653547726089206e+07  2.7129214086649943e+07  3.2370116581439029e+07  2.8935065824596863e+07  3.2773893873909451e+07  3.1361279252126440e+07  2.9006105044940740e+07  2.8862949563865870e+07  3.2002289687495161e+07  2.6782962695752602e+07  3.2599592957454264e+07  3.0214719375264637e+07  3.1990911440214690e+07  2.8018410831714410e+07  2.6833067990170572e+07  2.8283227500868630e+07  2.7331148477044325e+07  2.8785933487433441e+07  2.7238982502521932e+07  3.2549932375908237e+07  2.6659387561734587e+07  3.2263234378480390e+07  3.0960204078934595e+07  3.1762745571373899e+07  2.7976754977138642e+07  3.1939673907481801e+07  3.0074487730872210e+07  3.1541831419430520e+07  2.9563284784093756e+07  2.9855750821098115e+07  2.6714271204149853e+07  2.9658036296438575e+07  3.2641178058232095e+07  3.2354593152657639e+07  3.2913488380499981e+07  3.2060282990850043e+07  3.1871592386430155e+07  2.8788595975997269e+07  2.7499386208760001e+07  2.8358794638567962e+07  3.0176804025114477e+07  3.2512858476285327e+07  3.0792133573650226e+07  2.6801735419847179e+07  2.7021617127194069e+07  3.2745412436575796e+07  2.7754807889955308e+07  2.6753645615947582e+07  2.9821482801668171e+07  3.2462339685478613e+07  3.1424975708810892e+07  2.8607582076839697e+07  3.2681939973074235e+07  2.6712613210987099e+07  2.9534888922746241e+07  2.9127679193966866e+07  3.0868977300542295e+07  2.8501406120364856e+07  2.7590195133956153e+07  2.8946382110331029e+07  2.9336353530333988e+07  2.7592230295071915e+07  2.7622972767362736e+07  2.8328859828849725e+07  2.8826451133336157e+07  3.2876771064835709e+07  3.2614973491223522e+07  2.8360341496518448e+07  3.2802712752818715e+07  3.2260305557858311e+07  3.2329717825046830e+07  3.2488644538002606e+07  2.9399200976310071e+07  2.9275002883725736e+07  3.1630142045608059e+07  3.2145731334723279e+07  2.9308825447224919e+07  3.2592797891822565e+07  2.8440249581322465e+07  3.0974694153224483e+07  2.6844275397663478e+07  2.7698786008659855e+07  3.1497394694713362e+07  3.2358330308936287e+07  3.0806725671094179e+07  3.1791480427861638e+07  3.0326535868976485e+07  3.1995841123725504e+07  2.6745499519621789e+07  2.8250315898628812e+07  2.8348909769817859e+07  3.2438586747872289e+07  3.1410524345563233e+07  2.7084755695940323e+07  3.2665658343019158e+07  3.0536239737982035e+07  3.2625486813314818e+07  2.6838953720452607e+07  3.2875568037457261e+07  3.2867439988010224e+07  2.8288022110460106e+07  2.9650016017099891e+07  3.2869660309826072e+07  3.2922610542043123e+07  3.2566158067291904e+07  3.2580203629203945e+07  2.9995546918500826e+07  2.6682566756141704e+07  3.2650487222439967e+07  3.2462544199724887e+07  2.8353414043441486e+07  2.9618431568409573e+07  2.9336648642133869e+07  3.2907456046558380e+07  3.2865120974607393e+07  3.0452828194540389e+07  3.2718722972593389e+07  3.2807481006215014e+07  3.2838895003248166e+07  3.2926397657022588e+07  2.9278601087864384e+07  2.7793855767954666e+07  3.0005615363814503e+07  2.6718032177638724e+07  2.9502506857525297e+07  2.6947719726553418e+07  2.9908629613887504e+07  3.2979657731360067e+07  2.9714129232722115e+07  3.0026363634690315e+07  3.2569686679558653e+07  2.9226829009230994e+07  2.6780723799078118e+07  3.0012286923091505e+07  2.6847754845607534e+07  2.8052732502337866e+07  3.2579250682992849e+07  3.2529765164982446e+07  2.9427687941868518e+07  3.2980182644107725e+07  2.7295532123643085e+07  3.2655039221322451e+07  3.1308081439058054e+07  2.6868122008978494e+07  2.6696101421538975e+07  2.6682409686260115e+07  3.2102283943595812e+07  3.2688842919082757e+07  3.2618176229381867e+07  3.1795295145917188e+07  3.2893437177317314e+07  3.0793962268768992e+07  2.7854552845372658e+07  2.7854196121949583e+07  2.6749174228248656e+07  3.2869034831220198e+07  3.2878647035215262e+07  3.2882591778652366e+07  3.2439975043669734e+07  3.2509439780911867e+07  3.2894301683381189e+07  3.2833873968329150e+07  2.9759044389829602e+07  3.2997933967452429e+07  3.2996248697788708e+07  2.9230311996464979e+07  2.6834661323577777e+07  2.9457342059004530e+07  3.2734890145159714e+07  3.0158435923075996e+07  2.9565417149025507e+07  3.2985594146150544e+07  2.9324981722676400e+07  3.2217712857515283e+07  2.7986910535515018e+07  2.8373119984942634e+07  2.8291234199442483e+07  2.8458547740500826e+07  3.2597703422394678e+07  2.9606894519042000e+07  2.9670838169502035e+07  2.9533271873214766e+07  2.9660928311987139e+07  2.9375970026336934e+07  2.6855374548210245e+07  2.6814599254319709e+07  2.9743699970430337e+07  2.8240983398987200e+07  3.0083855569074936e+07  3.0082859005528323e+07  3.2992481504616331e+07  3.1296185735594835e+07  3.0829903580769360e+07  2.9747134661414508e+07  2.9482711324147932e+07  2.9436806787925374e+07  2.9331306775911201e+07  2.9380106564564168e+07  2.9296526262698192e+07  2.9375713690901525e+07  2.9286520539230373e+07  2.9292290791991085e+07  2.9504821543650951e+07  2.9384791250400878e+07  2.8852406032821108e+07  2.9075209722948059e+07  2.7452646857285779e+07  2.7582461974152494e+07  2.7424303763957817e+07  2.7258236381740883e+07  2.7311749971674398e+07  2.7069941784025665e+07  2.7224730617611755e+07  2.7136623040058114e+07  2.6805996649784602e+07  2.6729129142658852e+07  2.6849525300083082e+07  2.6856190453752570e+07  2.6848395084538262e+07  2.6889663572753128e+07  2.6852932062018305e+07  2.6982791982274223e+07  2.6953838237252872e+07  2.6868278133490749e+07  2.7098810610597424e+07  2.6992025392186329e+07  2.7135571244306099e+07  2.7053058569754932e+07  2.7260569972373608e+07  2.7601438371724714e+07  2.7376165199188549e+07  2.8107889745402090e+07  2.7644687424154311e+07  2.7870207392616898e+07  2.8236647088838421e+07  3.1639085210783530e+07  3.1366425947243463e+07  3.1016766874705285e+07  3.1340004605019830e+07  3.2258194991511215e+07  3.2528669546811700e+07  3.2378711811068941e+07  3.2512689205186434e+07  2.8405876710563600e+07  2.7811467628500562e+07  2.7830707249210317e+07  2.8131222287632924e+07  2.6786816046848364e+07  2.6903009160764128e+07  2.6662321439800717e+07  2.6847308945451491e+07  2.6711595625426617e+07  2.6727834263851400e+07  2.9512477093129285e+07  2.9648931649208512e+07  2.8841642954398766e+07  2.9205838534971844e+07  2.8956888658775683e+07  3.2210145674354114e+07  3.1973959994050633e+07  3.0050481107358534e+07  2.9910477966409933e+07  3.0459388535762690e+07  2.9707142351052791e+07  3.0463833551041901e+07  3.0254863566406045e+07  3.0672741204464506e+07  3.1318906478395186e+07  3.1021470718525246e+07  2.7120394136529919e+07  2.7538882569102302e+07  2.7992384885543928e+07  2.7291274459609676e+07  2.7213764996526416e+07  2.7135725904585510e+07  2.7543415864189766e+07  2.6850571100473981e+07  2.6873877756537735e+07  2.7343693591358885e+07  2.7368432777357452e+07  3.2197519982102163e+07  3.2518203871716708e+07  3.2350108114512928e+07  3.2526961604439031e+07  3.2716187436105616e+07  3.1671934547227170e+07  3.1092903678330932e+07  3.1590158518143594e+07  3.1384596620554931e+07  2.8771969754258711e+07  2.9148609535315957e+07  2.9135117590473287e+07  2.8688867077870637e+07  3.2192122918460909e+07  3.2029473632395938e+07  3.1934081119084504e+07  3.1831842209684059e+07  2.6719720932166256e+07  2.6793958239223283e+07  3.0129171921559691e+07  3.0160002499813259e+07  2.9767651178280942e+07  3.1958091917178601e+07  3.1777968908427563e+07  3.2174195892444100e+07  3.1760185303088471e+07  2.8250916517686728e+07  2.7812938050525919e+07  2.7849016600516226e+07  2.8100816035732016e+07  2.7888728530388247e+07  2.8042776420916259e+07  2.7071351552041363e+07  2.6789597313105743e+07  2.6881811565007661e+07  2.6768385277393229e+07  2.6930262271236025e+07  2.6882134407985449e+07  2.8032145950710230e+07  2.8411276854428239e+07  2.8523855544688661e+07  2.8298791785416614e+07  2.6998705237410229e+07  2.7431391630239092e+07  2.7460049351118781e+07  2.7515616487624668e+07  2.7061958820951976e+07  2.7296543181588218e+07  2.8783723989480276e+07  2.8987266427939557e+07  2.8623093576640129e+07  2.8523318963063519e+07  2.7131458265623745e+07  2.7495460339752737e+07  2.6932656473228082e+07  2.7395644509960294e+07  2.6629581958867777e+07  2.6709145160553362e+07  2.6624010179223765e+07  2.6695960000528634e+07  2.6667125075390913e+07  2.6690484327951092e+07  2.6646915485572368e+07  3.0890917896897148e+07  3.0659461065758243e+07  3.1194761513455492e+07  3.1129848777768627e+07  3.1774069496549897e+07  2.7777763245919973e+07  2.7776788915534783e+07  3.1735510410573024e+07  3.0472774757922959e+07  2.9701295255628720e+07  2.9642099844465796e+07  3.0296706580048878e+07  3.1826307348518997e+07  3.1584268472438462e+07  2.9470866406025279e+07  2.9446586715778779e+07  2.9995484890018366e+07  2.9334718157840256e+07  2.6677816465213656e+07  2.6775108723279394e+07  2.6686554245603319e+07  2.9527258149744544e+07  2.9987617258319777e+07  3.2502399555031829e+07  3.2618285690572679e+07  3.2223171736842789e+07  3.2494435215283196e+07  3.2254570825703330e+07  3.2199018725816153e+07  3.1856332489788581e+07  3.1762428872583605e+07  2.8492119333651323e+07  2.7255748870027468e+07  2.9706977461544342e+07  3.0336134261347078e+07  2.6776003599537663e+07  2.6825218403859559e+07  2.6817450532900058e+07  2.7387136204890564e+07  2.7997741527407650e+07  2.8937450261305686e+07  2.8635030545399431e+07  2.8500517930438999e+07  2.9236940048998911e+07  2.9158491689891852e+07  2.9170852242782746e+07  2.9157947221161302e+07  2.9220527321661230e+07  3.0823741530323509e+07  3.0677903424618911e+07  2.8377933753828231e+07  2.7980845155403297e+07  2.7627278676077232e+07  2.7951921505256701e+07  2.7641302002217788e+07  2.7457815727075879e+07  2.8585483477739032e+07  2.8803362582926825e+07  2.8396763210823487e+07  3.2473869452623032e+07  2.8816534983358007e+07  2.7947855170549307e+07  3.0593805219050817e+07  3.1128575510536388e+07  3.1609466124392420e+07  3.1353206456101459e+07  2.7007498388728570e+07  2.6834674042074729e+07  2.6673341745043349e+07  2.9251508941786077e+07  2.6859448557957787e+07  2.9246126302425649e+07  2.7061149375238433e+07  2.6745282160963632e+07  2.9271972048052806e+07  2.8157769801604901e+07  3.1494876195940465e+07  2.6769513099796366e+07  2.6796255165746666e+07  2.6690232428776491e+07  2.6724834729090571e+07  2.6695828210800428e+07  3.0365268672369901e+07  2.7166256953040276e+07  2.7331879837867912e+07  2.7249080760038979e+07  3.2439018378329389e+07  2.9535612926030204e+07  2.8880370862147301e+07  2.8839601423845150e+07  2.8895621505401481e+07  2.6739680775407787e+07  3.1826350799455609e+07  3.1879971888658702e+07  2.6930834807035521e+07  2.6923494384223677e+07  2.8181590131621152e+07  2.8273977530600451e+07  2.7165945251198821e+07  2.8644791203115437e+07  3.0044771273298547e+07  3.0271552315974038e+07  2.9840871403678022e+07  3.0375833692815498e+07  2.6841278109931950e+07  2.6652559945633452e+07  2.6742767910299331e+07  2.6696638991916385e+07  3.1961331321739916e+07  2.6924154253864590e+07  2.7077873443842467e+07  2.7195519792664923e+07  2.8715445177633934e+07  2.8681700195681483e+07  2.8761680128527977e+07  2.8602094754870154e+07  2.6778973672631796e+07  2.6644696150643043e+07  2.6685624228263896e+07  2.8714505726576548e+07  3.2266014824720472e+07  3.2339891642042253e+07  3.2420804276232198e+07  2.9356034158817753e+07  3.1745824794284746e+07  2.8608263809182610e+07  2.7755439036794495e+07  2.7655560269944340e+07  2.7817008786932901e+07  3.0973496584778540e+07  3.0298724289494108e+07  3.0469491248484071e+07  2.6752583839746773e+07  2.6734359228560604e+07  2.6721417956319891e+07  2.8166494290395726e+07  2.8386894573613930e+07  2.8360047891980220e+07  2.8094097090867374e+07  3.1273594757867742e+07  2.6898651213575263e+07  2.6868418979687024e+07  2.6894153630778119e+07  2.9252938301738475e+07  2.9206791789130155e+07  2.9227534432671901e+07  2.7174091856796950e+07  2.7292240278489247e+07  2.7376021855486482e+07  2.6651381736003019e+07  2.6847127710787062e+07  2.6828878878387302e+07  2.9300075297125209e+07  2.9406721819939893e+07  2.9347352202391934e+07  2.9270494512307081e+07  2.9280053758931171e+07  2.9295883830404665e+07  2.9268329843379114e+07  2.7436823297888227e+07  2.6864757989047050e+07  2.8203859271886181e+07  3.1700022832828831e+07  2.7974105137226459e+07  2.7885266005317919e+07  2.6755756635502104e+07  2.6794625618495420e+07  2.6866989012639362e+07  2.6968062134383898e+07  2.6795824601221155e+07  2.6651232821987510e+07  2.8875314808967642e+07  2.8726474417140301e+07  2.8784473054846674e+07  3.0246935523939490e+07  3.0425506569428653e+07  2.7076410051941890e+07  2.7276320904368367e+07  2.7027129316649426e+07  2.7092489848222453e+07  2.7451868235501826e+07  2.6917566387045477e+07  2.6887785684034925e+07  2.6754931761402510e+07  2.7568876606008723e+07  3.2430024201693341e+07  2.8849104831280690e+07  2.9036856444804817e+07  2.8743681778338417e+07  3.1932946339702807e+07  3.1946432714902975e+07  3.1843177609732248e+07  2.7968786829213019e+07  2.8237323040551130e+07  2.8021173562452607e+07  2.7373250389711916e+07  2.8503698325989537e+07  2.8442878423012588e+07  2.6634849270699948e+07  2.6649070588275854e+07  3.1047058672031906e+07  3.1011768923761960e+07  3.1162352048194751e+07  2.6725446599552371e+07  2.6841452915862512e+07  </DataArray> 
</PointData> 
</Piece>
</UnstructuredGrid>
</VTKFile>