<?xml version="1.0"?>
<VTKFile type="UnstructuredGrid"  version="0.1"  >
<UnstructuredGrid>
<Piece  NumberOfPoints="784" NumberOfCells="1320">
<Points>
<DataArray  type="Float64"  NumberOfComponents="3"  format="ascii">266913.131276 586512.314988 0  266738.13716 587762.325998 0  266363.132677 589012.328643 0  266175.641078 590169.601714 0  265666.575631 591040.7699119999 0  264875.64001 591687.766419 0  264900.636161 591845.049083 0  266088.14152 592012.3229499999 0  265561.959259 592661.17101 0  264288.136855 593037.368683 0  263865.194033 593999.8486949999 0  263850.641856 593236.729596 0  263625.634872 592756.525286 0  262689.574249 593299.848918 0  262475.636737 594003.0907310001 0  261934.554452 594340.929792 0  261725.631329 594932.094409 0  261729.256443 595728.498809 0  262138.136044 595012.330523 0  262288.141035 596262.333669 0  261488.994028 597511.480605 0  261234.15567 598316.338928 0  260815.635063 599014.863821 0  261400.643658 599389.7367680001 0  261322.963374 600022.185065 0  261119.455248 600931.061306 0  261607.436504 601293.0629359999 0  260807.446929 602089.899812 0  260025.642878 602988.868697 0  259613.135827 603937.3854499999 0  259050.643123 604100.987861 0  258411.880065 603988.6335979999 0  257764.357469 604449.872569 0  257971.239668 605320.429125 0  258041.396867 605740.635381 0  257188.143339 606987.394312 0  256038.141198 608112.3554550001 0  254788.141633 609087.4026939999 0  253588.140656 609812.362881 0  252338.135706 609737.4048949999 0  251088.138116 609787.404055 0  249963.12851 610287.399466 0  248613.130524 610462.365857 0  247363.132198 610687.407659 0  246113.130532 610837.411551 0  245832.347438 610918.209918 0  245016.946433 610958.5639439999 0  244313.129646 610762.372259 0  244400.622144 611378.093316 0  243939.669208 612460.8930899999 0  242960.649733 611984.892792 0  242170.381438 611919.647351 0  241888.122919 611112.375656 0  241393.380757 610467.6456149999 0  240594.157528 611306.369822 0  240525.621947 610804.648112 0  240363.123632 610512.3745050001 0  239113.123247 610262.374278 0  239813.12126 609037.412459 0  240588.122952 607812.368199 0  241013.119545 606625.9534560001 0  241454.373249 605724.888025 0  242238.120107 604687.3993 0  243088.121248 603462.362766 0  242860.319451 603007.3932640001 0  241563.116617 603812.361344 0  241778.400913 604327.642217 0  242059.837234 604824.879102 0  241475.620201 604923.2402390001 0  241462.182234 605449.881372 0  240906.219606 605674.888222 0  240241.856192 606891.125066 0  239891.734044 607841.012479 0  239048.653431 608724.889805 0  238118.054545 608974.895967 0  238888.111029 607337.406468 0  239738.119992 606212.362729 0  240288.12044 605687.4075229999 0  240380.212307 604729.521696 0  239347.309632 604603.204501 0  238888.112036 604387.408787 0  237913.11173 604687.401386 0  236784.172023 604499.882783 0  236883.408793 603717.08334 0  236154.933927 603595.565605 0  235688.103943 602912.369264 0  235763.108033 601662.366516 0  236363.110805 600412.35884 0  236738.107995 599162.356577 0  236525.607944 598482.2412899999 0  236138.109208 599362.357613 0  235725.063048 600325.4466510001 0  235091.948926 601408.5220979999 0  235188.10921 600312.366344 0  234375.602405 600833.9674270001 0  234663.109308 599912.358011 0  234138.105122 600062.365644 0  233955.307245 599029.561063 0  233338.103791 598387.401556 0  233988.09795 597862.356384 0  235138.101489 596637.3947750001 0  235563.1039 595387.392428 0  236513.103639 594212.356312 0  237163.10684 592987.3929869999 0  238313.103031 591862.3515540001 0  239513.107028 590812.3512640001 0  240638.102135 589787.387271 0  241463.109549 588587.378486 0  242294.489816 587443.735215 0  242913.101099 586512.341804 0  243544.066915 585474.859604 0  243040.448415 585184.975583 0  242438.10214 585337.38015 0  241313.102353 586562.339499 0  240538.107104 587787.382449 0  240114.641085 588588.939407 0  239388.100256 589437.382238 0  238188.104456 590512.346358 0  236938.100507 591362.349798 0  235813.10453 592537.396388 0  234864.502938 593178.7753880001 0  234463.097651 592862.357267 0  235113.0965 591662.3545979999 0  235713.101522 590412.346099 0  235777.688431 589976.7582779999 0  234943.583145 590706.265132 0  234462.482256 591490.2841159999 0  233801.497784 592112.940187 0  233388.099101 591787.394208 0  234013.093099 590437.393065 0  234776.217248 587148.7548100001 0  235163.093726 586562.3486189999 0  235313.098918 585483.229012 0  235250.59732 584662.298153 0  235588.093896 583337.379493 0  236329.432041 582199.858992 0  237188.096234 581462.3349939999 0  237463.088521 580212.335511 0  238350.592558 579057.652616 0  238591.415797 578574.847681 0  238313.094106 577612.328905 0  239229.696732 577695.769664 0  240195.161018 577513.008613 0  240614.996733 577149.8518770001 0  240663.091715 577412.332622 0  240288.092486 578662.334085 0  239942.357258 579508.095811 0  240438.100019 580212.3334220001 0  241338.095553 580387.375355 0  241238.099828 579137.369157 0  241788.097003 577887.370889 0  241983.554649 577241.9220939999 0  242054.178239 576927.8105029999 0  242588.100699 575737.366175 0  243149.324833 574898.583978 0  243695.278626 573919.517981 0  244268.494418 573724.8454239999 0  244995.134063 573930.2767810001 0  245417.314363 573391.601898 0  243450.599125 571859.479773 0  245776.797908 572599.8353060001 0  246779.639852 572973.285167 0  248034.741935 573186.082054 0  249413.10651 573162.3205520001 0  250496.922226 573271.1521899999 0  251613.105126 573237.3551319999 0  252421.824577 572846.032906 0  253256.245022 572580.4733130001 0  253739.471933 571960.9547369999 0  254174.511864 572149.8346569999 0  254484.944333 571684.194807 0  254384.108649 570891.346712 0  254344.002752 570218.26407 0  255025.609604 570829.0294979999 0  255715.005913 570489.264586 0  256218.846343 570774.828355 0  256834.349083 570508.5908 0  257390.092515 570014.308325 0  257624.431042 568493.478911 0  259355.811717 569380.021819 0  260033.372814 569617.066669 0  262679.741751 570320.699974 0  263289.115756 569524.817815 0  263463.114338 570512.301061 0  264638.198419 570687.3443539999 0  265058.220065 571334.378467 0  265447.561421 572077.90485 0  265488.125257 573137.3446020001 0  265131.937715 573963.293593 0  265432.389648 575093.068786 0  265638.122314 576338.029955 0  265750.630817 577371.8281319999 0  265738.570663 578561.9098850001 0  265875.630866 579139.630549 0  266213.129247 579862.311842 0  266563.130472 581112.314509 0  266238.135356 582362.310259 0  265938.12863 583612.320897 0  265738.131342 584762.3210189999 0  266875.638633 585365.358768 0  264018.7239399826 593650.4646671159 0  262236.3944351029 595831.1252656333 0  241846.246678 605206.1436625 0  240200.622106 608424.8903290001 0  240943.4862974102 610939.7757535663 0  236550.6094 599787.3577085 0  238528.1212051503 608102.9081793013 0  244413.4891967989 572609.5960859474 0  236382.0474488751 598808.3067022427 0  235369.601910944 600933.5380148316 0  235413.099011 591037.3503485 0  235446.2251831186 590266.6553871984 0  240475.5921005 578037.3333535 0  240413.173949154 577324.4280286073 0  240574.037899 606283.0066440001 0  263857.9179445 593618.2891454998 0  264153.4303974913 593343.916675058 0  242042.1833925 604946.7714812499 0  241650.3099635 605465.51584375 0  244613.6985165 572229.6575395 0  236631.8579695 598822.2989335 0  235140.029068 600860.444221 0  241767.7287175 604874.0596705 0  242140.15174975 604817.0853906251 0  234781.8558075 600573.1668855001 0  242091.167571125 604881.9284359375 0  234519.3558565 600373.162719 0  254604.8337712102 583989.0014118921 0  250699.5846056537 594617.3297041012 0  250540.4796469513 602258.2940568649 0  248483.7490186612 580334.7345534252 0  258549.2190328319 577893.951823392 0  257067.0067473103 590016.5327808241 0  243285.0921999099 596333.923437875 0  248333.1386145258 589098.0389905117 0  256142.8445072741 595883.3911551933 0  260245.1368072523 583315.2785712298 0  253472.3380211276 578932.2908163272 0  246432.3347504817 599884.5019511909 0  261555.9240922556 588041.186709004 0  247293.1100123104 605823.8307887657 0  246458.2798550911 593168.8646574575 0  252840.0183145193 588226.5564648228 0  249828.2874404451 584740.7888937403 0  255409.5660975206 600458.8956828594 0  260819.9733392385 574219.403683011 0  252584.2262054711 605722.6603825617 0  254049.8830611471 592547.4852571967 0  250015.4356193061 598425.2225922942 0  245872.072249477 577604.9761853142 0  262002.1583249522 579753.4663046852 0  257732.6630933878 586227.970805314 0  250242.5556457866 577017.3316409125 0  244921.6453001869 581816.6358421432 0  256520.3890639471 580904.824006648 0  240779.0970645865 599524.6679555867 0  257100.1829219198 574459.5922545703 0  239912.2630002034 595231.1172704464 0  244703.0875078634 590068.6945953515 0  242549.5490268674 592874.3693043783 0  251586.0465921376 581796.2215047925 0  246643.189997516 596527.447801719 0  251049.7658069622 591057.6752245198 0  253014.5731561695 596998.6601086652 0  238680.2197353724 584542.2309791476 0  259715.365803504 591937.1938619445 0  254097.157218761 575731.4494927844 0  246806.6408589328 586139.0877599345 0  246136.1179750556 602959.471719323 0  253520.7033332401 602835.180253843 0  244125.4295793909 607538.9817227355 0  252546.8895354472 599881.3279113505 0  258289.0983523553 600397.640191779 0  247518.7952199645 583037.3718217331 0  263140.3959879661 582529.2228421422 0  262894.8586894067 585442.3590432997 0  256968.6320599076 593040.7691844478 0  243573.0187527719 600218.2795730785 0  258888.5766127351 595139.7745218446 0  262588.7569809347 576734.8569237856 0  259318.4257992262 580601.2540325444 0  249963.3812725965 607065.7205847671 0  257494.5307999607 583482.5893534871 0  258906.4757205145 572278.8089438241 0  237751.446593475 587300.5805003279 0  255142.4708720699 604956.7580261135 0  258485.4978753244 597756.9250383095 0  255516.7820591553 587791.39641967 0  239758.4692108706 601926.8203218657 0  255873.0092222999 577739.5085867504
[...]
<PointData  Scalars="f_32-0"> 
<DataArray  type="Float64"  Name="f_32-0"  format="ascii">1.3540499682902493e+07  1.3557037643244397e+07  1.3576216008220457e+07  1.3593306065368988e+07  1.3604627398534678e+07  1.3622931641250579e+07  1.3631314306149529e+07  1.3640736591958376e+07  1.3640015181201454e+07  1.3640152418182774e+07  1.3643485616440943e+07  1.3641675454103252e+07  1.3640214765543925e+07  1.3672537271437792e+07  1.3707454334993402e+07  1.3745478354787378e+07  1.3807182241406668e+07  1.3887756956911879e+07  1.3900161440505439e+07  1.3911277182116760e+07  1.3973358440146742e+07  1.4024813653947357e+07  1.4087076363783596e+07  1.4124082851616532e+07  1.4141688158225784e+07  1.4180436686244506e+07  1.4192196460742453e+07  1.4211070935257357e+07  1.4250987211495584e+07  1.4280017921883618e+07  1.4288734374075206e+07  1.4313799415500199e+07  1.4383474327633688e+07  1.4444446776474964e+07  1.4455714066395987e+07  1.4503705057653468e+07  1.4555736778157029e+07  1.4601273594118526e+07  1.4630559546161002e+07  1.4655489709301621e+07  1.4692261800425753e+07  1.4728198530837977e+07  1.4762320287250867e+07  1.4794445548856068e+07  1.4824202176296111e+07  1.4830500935816014e+07  1.4846482492241941e+07  1.4866001113254616e+07  1.4880138179916028e+07  1.4886333293750338e+07  1.4887738901286960e+07  1.4889060939472761e+07  1.4888948048516748e+07  1.4891491460515309e+07  1.4896765842896825e+07  1.4896371341396471e+07  1.4896427579852907e+07  1.4898379240511835e+07  1.4892869680976208e+07  1.4872627729976118e+07  1.4845556805414179e+07  1.4820078670127811e+07  1.4774089791470638e+07  1.4691255775178123e+07  1.4670637231624505e+07  1.4729917017500123e+07  1.4750940389213929e+07  1.4756656629620386e+07  1.4762565414981954e+07  1.4771966025192771e+07  1.4785346801706189e+07  1.4834099681489846e+07  1.4849855129998254e+07  1.4857219847321179e+07  1.4858697158781227e+07  1.4850733725978712e+07  1.4826896990874883e+07  1.4798852452502050e+07  1.4759790078031214e+07  1.4749925638812879e+07  1.4750727877044115e+07  1.4753748016028007e+07  1.4754583448886342e+07  1.4752472106720582e+07  1.4751161602209421e+07  1.4749206512702245e+07  1.4741069169180296e+07  1.4719393824291389e+07  1.4684813647232611e+07  1.4672514987797409e+07  1.4690567846542347e+07  1.4699364716200870e+07  1.4702264846464533e+07  1.4699896227592373e+07  1.4700944828785203e+07  1.4698456203404728e+07  1.4697944852731418e+07  1.4694416405119618e+07  1.4692677873094464e+07  1.4688484641595379e+07  1.4653277143546086e+07  1.4612189629359690e+07  1.4551455662731754e+07  1.4483728855707392e+07  1.4388859529166805e+07  1.4256262166715860e+07  1.4093643240621790e+07  1.3932407469710739e+07  1.3812055726703718e+07  1.3753605570428258e+07  1.3772125890211239e+07  1.3871810082308965e+07  1.3980418423724871e+07  1.4165444924806060e+07  1.4272419219370112e+07  1.4315597437662138e+07  1.4354201696767267e+07  1.4397294808276564e+07  1.4427096084869482e+07  1.4447566644566238e+07  1.4452055932615971e+07  1.4452099445141042e+07  1.4445180859051982e+07  1.4426611180726543e+07  1.4420223545088755e+07  1.4434531922243757e+07  1.4443400321350032e+07  1.4446194921642778e+07  1.4446195296899321e+07  1.4437074632105028e+07  1.4378292308391592e+07  1.4358472374007929e+07  1.4323774219401821e+07  1.4302815237060288e+07  1.4272849849505961e+07  1.4240010726592483e+07  1.4203654622320440e+07  1.4178611480159894e+07  1.4171778533899199e+07  1.4175932015009498e+07  1.4180222680013588e+07  1.4179828990288869e+07  1.4181566915432721e+07  1.4182440337828770e+07  1.4182333043636046e+07  1.4175393277653961e+07  1.4151674101434428e+07  1.4084412483943725e+07  1.3945151297158375e+07  1.3845414923669411e+07  1.3789176697364744e+07  1.3764936148950642e+07  1.3755958944424858e+07  1.3723966082165642e+07  1.3701839446818337e+07  1.3684090251916533e+07  1.3677322641417969e+07  1.3655089928275771e+07  1.3634986459947515e+07  1.3648904970533989e+07  1.3631353717941390e+07  1.3601860730725782e+07  1.3542019910929065e+07  1.3474670293555805e+07  1.3429129386815494e+07  1.3394942068535356e+07  1.3388119709304614e+07  1.3396089673518183e+07  1.3407303353279341e+07  1.3414203262139443e+07  1.3433238361137645e+07  1.3445982365026064e+07  1.3447748510050636e+07  1.3446874441989690e+07  1.3451425712388733e+07  1.3455631026623677e+07  1.3467104182856960e+07  1.3481232018554850e+07  1.3492380821082445e+07  1.3489763950778494e+07  1.3489557831559615e+07  1.3492529882211201e+07  1.3494483785612158e+07  1.3492724304980721e+07  1.3490913437720343e+07  1.3488607261778792e+07  1.3484320123309160e+07  1.3476389375210077e+07  1.3463259927850856e+07  1.3443637762352468e+07  1.3428048280113911e+07  1.3419276818212934e+07  1.3415284102974363e+07  1.3417489685390003e+07  1.3423490220111152e+07  1.3434183493629182e+07  1.3446289030920736e+07  1.3466429794391712e+07  1.3499594414608886e+07  1.3528113558228500e+07  1.3643052556444187e+07  1.3902941949649971e+07  1.4800033541885413e+07  1.4885022460953625e+07  1.4896122425936364e+07  1.4703236374238284e+07  1.4856596292447440e+07  1.3644721106129203e+07  1.4681013290248999e+07  1.4701686794605890e+07  1.4437246261278363e+07  1.4425567542068552e+07  1.4180587072259691e+07  1.4182258409161581e+07  1.4813883745503707e+07  1.3643054742898628e+07  1.3641994803479753e+07  1.4787796583566692e+07  1.4810923222500620e+07  1.3644721159428990e+07  1.4675578001811156e+07  1.4701688385310788e+07  1.4757556707263669e+07  1.4781165764164392e+07  1.4700505226543196e+07  1.4784527832344901e+07  1.4700490750945508e+07  1.3096646694198830e+07  1.3780984530521467e+07  1.4366626421552468e+07  1.3480248531275839e+07  1.3242968808921801e+07  1.3096206971416313e+07  1.4361515493670659e+07  1.3443539423535036e+07  1.3826532242127562e+07  1.3285313502530010e+07  1.3239171393503109e+07  1.4338834022871040e+07  1.3418460151808560e+07  1.4686258166718204e+07  1.3862580084467553e+07  1.3052015104330730e+07  1.3429182423604948e+07  1.4094769114675423e+07  1.3421901383656347e+07  1.4552679786947049e+07  1.3474233075504098e+07  1.4050599288276374e+07  1.3622925993080357e+07  1.3341345667399395e+07  1.2982479039461592e+07  1.3381453285167390e+07  1.3716635135296090e+07  1.3203361753636893e+07  1.4621258506308358e+07  1.3366756081441171e+07  1.4476351415719390e+07  1.3709971697913725e+07  1.4161834868686853e+07  1.3358092577562017e+07  1.4151693477581274e+07  1.3390442598391525e+07  1.3892884417605624e+07  1.4217536764202980e+07  1.3530301436027819e+07  1.3279787941228257e+07  1.3558679165179541e+07  1.4560317128145101e+07  1.4349050733282715e+07  1.4818988222745704e+07  1.4103921857419051e+07  1.4145290453246890e+07  1.3569628017367177e+07  1.3404836487430440e+07  1.3439971745725717e+07  1.3517935944360474e+07  1.4540566395003779e+07  1.3807401421684941e+07  1.3388700991578417e+07  1.3239203625903154e+07  1.4667011579643270e+07  1.3127642925073538e+07  1.3455290713161368e+07  1.4335064407703951e+07  1.4462030022875858e+07  1.3991262327059137e+07  1.2840890217141164e+07  1.4712126796016304e+07  1.3203988308601217e+07  1.3553662396951392e+07  1.3944498979764171e+07  1.3671259537344653e+07  1.3748001379967473e+07  1.3243658927619219e+07  1.3529002569833290e+07  1.3104838508822916e+07  1.3365756128566690e+07  1.3527828895688783e+07  1.3286170147622621e+07  1.3170284601466423e+07  1.4782878123835113e+07  1.4547327952758161e+07  1.3265413218349926e+07  1.4720823671397753e+07  1.4364216958325623e+07  1.4249690960183740e+07  1.4607677225486593e+07  1.4137477204782037e+07  1.3689156967082610e+07  1.3927769295926772e+07  1.4257954112241935e+07  1.3320511801822025e+07  1.4501286682601597e+07  1.2966594520620761e+07  1.3737700558474170e+07  1.3473002096038917e+07  1.3484011523310684e+07  1.3919252870285487e+07  1.4509892173579143e+07  1.3597652881219905e+07  1.4130418553393964e+07  1.3621467365062369e+07  1.4332747534358399e+07  1.3333920033694584e+07  1.3600116532321250e+07  1.3463702334410362e+07  1.4590237019782351e+07  1.3901118311789108e+07  1.3404836262687124e+07  1.4610763028398322e+07  1.3574495450676875e+07  1.4686249113800451e+07  1.3440531239639614e+07  1.4788973099939350e+07  1.4784038263718210e+07  1.3723170794225980e+07  1.3627878671891911e+07  1.4786513811664438e+07  1.4824822226365028e+07  1.4657921208167348e+07  1.4680642878056487e+07  1.4412443540532148e+07  1.3413678687538870e+07  1.4604693748989640e+07  1.4471831889575981e+07  1.3749716430846373e+07  1.3627423240162222e+07  1.3575213629957115e+07  1.4817478401486896e+07  1.4782977032510137e+07  1.3737797265726250e+07  1.4738069020941786e+07  1.4737826435583759e+07  1.4761398397551391e+07  1.4828029098014599e+07  1.3795272573163491e+07  1.3601942365143206e+07  1.4416486491478976e+07  1.3448180384030273e+07  1.3603557537610231e+07  1.3407032878722612e+07  1.4374335642738432e+07  1.4878877565853953e+07  1.4288088430549582e+07  1.4425915970034484e+07  1.4664184948686957e+07  1.3933876793477545e+07  1.3480793461792383e+07  1.4419735761127928e+07  1.3350021344807917e+07  1.3680675195302622e+07  1.4678784144729711e+07  1.4646943674630694e+07  1.4153001105120879e+07  1.4878448504281370e+07  1.3437410702226093e+07  1.4709151837214956e+07  1.3986880701059189e+07  1.3481863320945350e+07  1.3421706319787383e+07  1.3363084096938154e+07  1.4271900519957960e+07  1.4649822550430903e+07  1.4618759376256160e+07  1.4145480011404878e+07  1.4806092175350165e+07  1.3842582563899446e+07  1.3639399453896206e+07  1.3639534978728157e+07  1.3470165632269667e+07  1.4786204197081771e+07  1.4794079316466575e+07  1.4797238427129325e+07  1.4458437809075702e+07  1.4627941849569727e+07  1.4798662707261525e+07  1.4744364331992164e+07  1.4305336946954194e+07  1.4894926520726284e+07  1.4893629154024182e+07  1.4049374146060143e+07  1.3413399460318701e+07  1.4167792737283221e+07  1.4666997834650293e+07  1.3692593638754694e+07  1.4219441695604462e+07  1.4882762493425747e+07  1.4088536187296906e+07  1.4319419050933618e+07  1.3455271121866526e+07  1.3757269047308560e+07  1.3739107407593837e+07  1.3775892787334789e+07  1.4692384413862726e+07  1.3627270415681865e+07  1.3638915882571271e+07  1.3614380207725449e+07  1.3636058318830583e+07  1.3595983257158838e+07  1.3487347331798371e+07  1.3478389654096572e+07  1.3619586158049271e+07  1.3724579501943758e+07  1.4450689184643166e+07  1.4450255223621918e+07  1.4890117807007281e+07  1.3956598371080181e+07  1.3784870901171707e+07  1.3667475685020020e+07  1.3742567037854543e+07  1.3800603383225784e+07  1.3927348930539779e+07  1.3826920830961823e+07  1.3912583140951425e+07  1.4083945888450885e+07  1.3946986764012370e+07  1.4035962262321891e+07  1.4183069689263143e+07  1.4107769318272375e+07  1.3839875555946510e+07  1.3959526836020963e+07  1.3505919110526288e+07  1.3536964290743710e+07  1.3492584204255659e+07  1.3451765844295189e+07  1.3460177946659328e+07  1.3409293194324732e+07  1.3435769303580128e+07  1.3414158217806896e+07  1.3379018279192017e+07  1.3387158702072807e+07  1.3430247585590392e+07  1.3423102334214756e+07  1.3423237729885297e+07  1.3416258000077039e+07  1.3418531415515754e+07  1.3415978958011601e+07  1.3413129332080571e+07  1.3414293220527360e+07  1.3420398521165319e+07  1.3414233313262574e+07  1.3418807060835039e+07  1.3416955212798096e+07  1.3425706118782451e+07  1.3439069422426283e+07  1.3430696979550332e+07  1.2949725793054672e+07  1.3170957310485046e+07  1.3076113177781159e+07  1.3023957019151798e+07  1.3906310683215346e+07  1.3834544030765695e+07  1.3730963401995428e+07  1.3840381116494125e+07  1.4242350516733069e+07  1.4464711837177938e+07  1.4304971704388576e+07  1.4431247445536220e+07  1.3524671979369165e+07  1.3425410453804901e+07  1.3475678660632024e+07  1.3532265303600127e+07  1.3276482469433468e+07  1.3206500094861638e+07  1.3293721229700975e+07  1.3230017567184698e+07  1.3219109335697602e+07  1.3285833312856635e+07  1.3327094704002198e+07  1.3297962286370086e+07  1.2929795481375575e+07  1.3060545016366655e+07  1.3102003523570400e+07  1.4423333952639725e+07  1.4267295904264756e+07  1.3396620289061150e+07  1.3474453509507881e+07  1.3512155697497241e+07  1.3386647912266066e+07  1.3505410182827324e+07  1.3497003551357687e+07  1.3665148998805316e+07  1.3853292792561129e+07  1.3773481865499113e+07  1.3316693105078559e+07  1.3355293288983719e+07  1.3361973952849314e+07  1.3261928536318772e+07  1.3289263383942857e+07  1.3219538147922821e+07  1.3303049848685630e+07  1.3222591196716283e+07  1.3204760540726263e+07  1.3253588561088866e+07  1.3296369713175051e+07  1.4181276833534904e+07  1.4444043455945645e+07  1.4277658505652163e+07  1.4481642169833567e+07  1.4629643120792206e+07  1.4031108521284830e+07  1.3720346429091960e+07  1.3995899311382605e+07  1.3869731987430433e+07  1.2912421664016012e+07  1.3044749527698716e+07  1.3185619002957862e+07  1.2976973453213902e+07  1.4220142048710722e+07  1.4080094566766122e+07  1.4119809784772126e+07  1.3994898716577357e+07  1.3393693854685627e+07  1.3399017604883501e+07  1.3426626771869469e+07  1.3469904124867991e+07  1.3290164817243729e+07  1.4080325139489653e+07  1.3957756386348791e+07  1.4153241777099336e+07  1.3973239363832466e+07  1.3679796286534311e+07  1.3573287832394371e+07  1.3552334231731238e+07  1.3609290669716643e+07  1.3611577981671404e+07  1.3662039314915558e+07  1.3369536673363566e+07  1.3358111700446546e+07  1.3287596374589385e+07  1.3319294262840685e+07  1.3377172927592989e+07  1.3381868980560865e+07  1.3046049618412716e+07  1.2861914412541315e+07  1.3050330601427460e+07  1.2862459804831317e+07  1.3293790893106870e+07  1.3363848440108439e+07  1.3454929346108491e+07  1.3433602552361473e+07  1.3340320492741659e+07  1.3407977881042680e+07  1.3636026710477162e+07  1.3830308771159289e+07  1.3734434884226056e+07  1.3654672912543213e+07  1.3209164602491900e+07  1.3177595065039448e+07  1.3202151942586215e+07  1.3213879225485800e+07  1.3317546015164677e+07  1.3418675351027245e+07  1.3273443567832053e+07  1.3343065679343376e+07  1.3392391937833235e+07  1.3415083220471900e+07  1.3362282485332388e+07  1.3630987804223040e+07  1.3644005337445488e+07  1.3793635369369334e+07  1.3836974126272965e+07  1.4140831395141291e+07  1.3295680916030241e+07  1.3367810084817925e+07  1.4034883187959945e+07  1.3526202961566908e+07  1.3265569528375715e+07  1.3293114325731261e+07  1.3477099638176493e+07  1.3981993931353839e+07  1.3907610566028254e+07  1.4173002277494334e+07  1.4158887351761388e+07  1.3506637923941586e+07  1.3340464215130188e+07  1.3229157908052457e+07  1.3315298702795103e+07  1.3322853606942676e+07  1.3456137294238003e+07  1.3575504701639675e+07  1.4400537607565461e+07  1.4524490930609096e+07  1.4227194155695802e+07  1.4453907879906580e+07  1.4294080724719986e+07  1.4185294920238836e+07  1.3986316575426282e+07  1.4031289968220942e+07  1.3579193539262373e+07  1.3404298054387998e+07  1.3279032591858357e+07  1.3643755670047801e+07  1.3361362648771014e+07  1.3394548485105075e+07  1.3403291519509552e+07  1.3211118839276016e+07  1.3171910332625410e+07  1.2938203947520617e+07  1.2937340285118004e+07  1.2863359537006302e+07  1.3402097981734656e+07  1.3873842287610441e+07  1.3938935330679247e+07  1.3996546878879085e+07  1.4015788141959233e+07  1.3631892279504083e+07  1.3609372487295751e+07  1.3676695280702516e+07  1.3254181909245953e+07  1.3418915752577830e+07  1.3418025429762661e+07  1.3504771065585518e+07  1.3480792333903344e+07  1.3220443554122087e+07  1.3275334928021425e+07  1.3124958148873571e+07  1.4374612225843402e+07  1.3136878160762101e+07  1.3535722397088589e+07  1.3556000154094120e+07  1.3727886040957332e+07  1.4019542059857491e+07  1.3920948178932481e+07  1.3405329198375998e+07  1.3424117155858438e+07  1.3389269372645570e+07  1.3861554484920822e+07  1.3406741164337359e+07  1.4015651409672255e+07  1.3378932472746346e+07  1.3351934073717358e+07  1.4064229282851901e+07  1.2964133936812662e+07  1.3874729975968398e+07  1.3254308335436702e+07  1.3218305545081798e+07  1.3263117855819033e+07  1.3230438390935242e+07  1.3286886286498360e+07  1.3489975904238693e+07  1.3258598494169613e+07  1.3270602465760479e+07  1.3265054701928735e+07  1.4358553745496484e+07  1.3222520224753330e+07  1.2977933896017589e+07  1.3007352210905628e+07  1.3079345740645096e+07  1.3385331799875790e+07  1.3973777198137561e+07  1.4004644901113352e+07  1.3327517581810741e+07  1.3354117353509918e+07  1.2940220990863133e+07  1.2896368305476269e+07  1.3331758934064563e+07  1.3644132207115309e+07  1.3382778837104196e+07  1.3456265745403903e+07  1.3322764865570566e+07  1.3497227504686097e+07  1.3277037594617216e+07  1.3295580156320034e+07  1.3297238233305223e+07  1.3301147749021616e+07  1.4040750579864280e+07  1.3232438957961068e+07  1.3221007730495749e+07  1.3227913218123691e+07  1.2872754878905710e+07  1.2864787745077895e+07  1.2877627873035520e+07  1.2864683358412011e+07  1.3200086197905814e+07  1.3230549917985670e+07  1.3213125973645130e+07  1.3046809747939922e+07  1.4209862399697894e+07  1.4258591154516282e+07  1.4320601293319987e+07  1.4112577768131316e+07  1.3948778999411795e+07  1.3043701800503459e+07  1.3478367863146700e+07  1.3449502996032629e+07  1.3508956132721726e+07  1.3656797287966570e+07  1.3549492555967631e+07  1.3577722200010957e+07  1.3297550475990500e+07  1.3309827822125988e+07  1.3335278721701939e+07  1.3603658989042277e+07  1.3625921232869154e+07  1.3586149930135580e+07  1.3565771744990405e+07  1.3810922556087838e+07  1.3409859137304025e+07  1.3400139225543965e+07  1.3405999200209159e+07  1.3984132715173632e+07  1.3976436530380711e+07  1.3975973288493151e+07  1.3388999493856147e+07  1.3422812184103305e+07  1.3458368486662468e+07  1.3341212725512318e+07  1.3413771780098293e+07  1.3404230682542931e+07  1.4062125018370755e+07  1.4132399412140308e+07  1.4093891364993306e+07  1.4052205383942943e+07  1.4053180644372474e+07  1.4074641019338598e+07  1.4024604613465447e+07  1.3487325071190877e+07  1.3410964748542761e+07  1.2902022307004640e+07  1.3936191017533684e+07  1.3502609745358143e+07  1.3504120370766543e+07  1.3274958186097851e+07  1.3209005880153742e+07  1.3253787907866154e+07  1.3216872428075578e+07  1.3202302730839141e+07  1.3239837774724973e+07  1.2998008169508075e+07  1.2920612763946762e+07  1.3012324465844346e+07  1.3446255139418434e+07  1.3520729526630793e+07  1.3344732727525041e+07  1.3363450736249691e+07  1.3246094289485769e+07  1.3283272482865019e+07  1.3300653771472046e+07  1.3252218551350892e+07  1.3201444272274446e+07  1.3207106485587170e+07  1.3333457356806202e+07  1.4334955604540924e+07  1.2914149776540319e+07  1.2984773767241966e+07  1.3054391472585317e+07  1.4027534663829073e+07  1.4028995664030377e+07  1.3983191050068554e+07  1.3579344265087817e+07  1.3641165089326343e+07  1.3571533444450015e+07  1.3444697086328035e+07  1.3614144484003847e+07  1.3664868662434952e+07  1.3269706832972758e+07  1.3318812739967039e+07  1.3706486161959033e+07  1.3675596198620591e+07  1.3755386641291864e+07  1.3317808808374278e+07  1.3401299084969981e+07  </DataArray> 
</PointData> 
</Piece>
</UnstructuredGrid>
</VTKFile>