<?xml version="1.0"?>
<VTKFile type="UnstructuredGrid"  version="0.1"  >
<UnstructuredGrid>
<Piece  NumberOfPoints="784" NumberOfCells="1320">
<Points>
<DataArray  type="Float64"  NumberOfComponents="3"  format="ascii">266913.131276 586512.314988 0  266738.13716 587762.325998 0  266363.132677 589012.328643 0  266175.641078 590169.601714 0  265666.575631 591040.7699119999 0  264875.64001 591687.766419 0  264900.636161 591845.049083 0  266088.14152 592012.3229499999 0  265561.959259 592661.17101 0  264288.136855 593037.368683 0  263865.194033 593999.8486949999 0  263850.641856 593236.729596 0  263625.634872 592756.525286 0  262689.574249 593299.848918 0  262475.636737 594003.0907310001 0  261934.554452 594340.929792 0  261725.631329 594932.094409 0  261729.256443 595728.498809 0  262138.136044 595012.330523 0  262288.141035 596262.333669 0  261488.994028 597511.480605 0  261234.15567 598316.338928 0  260815.635063 599014.863821 0  261400.643658 599389.7367680001 0  261322.963374 600022.185065 0  261119.455248 600931.061306 0  261607.436504 601293.0629359999 0  260807.446929 602089.899812 0  260025.642878 602988.868697 0  259613.135827 603937.3854499999 0  259050.643123 604100.987861 0  258411.880065 603988.6335979999 0  257764.357469 604449.872569 0  257971.239668 605320.429125 0  258041.396867 605740.635381 0  257188.143339 606987.394312 0  256038.141198 608112.3554550001 0  254788.141633 609087.4026939999 0  253588.140656 609812.362881 0  252338.135706 609737.4048949999 0  251088.138116 609787.404055 0  249963.12851 610287.399466 0  248613.130524 610462.365857 0  247363.132198 610687.407659 0  246113.130532 610837.411551 0  245832.347438 610918.209918 0  245016.946433 610958.5639439999 0  244313.129646 610762.372259 0  244400.622144 611378.093316 0  243939.669208 612460.8930899999 0  242960.649733 611984.892792 0  242170.381438 611919.647351 0  241888.122919 611112.375656 0  241393.380757 610467.6456149999 0  240594.157528 611306.369822 0  240525.621947 610804.648112 0  240363.123632 610512.3745050001 0  239113.123247 610262.374278 0  239813.12126 609037.412459 0  240588.122952 607812.368199 0  241013.119545 606625.9534560001 0  241454.373249 605724.888025 0  242238.120107 604687.3993 0  243088.121248 603462.362766 0  242860.319451 603007.3932640001 0  241563.116617 603812.361344 0  241778.400913 604327.642217 0  242059.837234 604824.879102 0  241475.620201 604923.2402390001 0  241462.182234 605449.881372 0  240906.219606 605674.888222 0  240241.856192 606891.125066 0  239891.734044 607841.012479 0  239048.653431 608724.889805 0  238118.054545 608974.895967 0  238888.111029 607337.406468 0  239738.119992 606212.362729 0  240288.12044 605687.4075229999 0  240380.212307 604729.521696 0  239347.309632 604603.204501 0  238888.112036 604387.408787 0  237913.11173 604687.401386 0  236784.172023 604499.882783 0  236883.408793 603717.08334 0  236154.933927 603595.565605 0  235688.103943 602912.369264 0  235763.108033 601662.366516 0  236363.110805 600412.35884 0  236738.107995 599162.356577 0  236525.607944 598482.2412899999 0  236138.109208 599362.357613 0  235725.063048 600325.4466510001 0  235091.948926 601408.5220979999 0  235188.10921 600312.366344 0  234375.602405 600833.9674270001 0  234663.109308 599912.358011 0  234138.105122 600062.365644 0  233955.307245 599029.561063 0  233338.103791 598387.401556 0  233988.09795 597862.356384 0  235138.101489 596637.3947750001 0  235563.1039 595387.392428 0  236513.103639 594212.356312 0  237163.10684 592987.3929869999 0  238313.103031 591862.3515540001 0  239513.107028 590812.3512640001 0  240638.102135 589787.387271 0  241463.109549 588587.378486 0  242294.489816 587443.735215 0  242913.101099 586512.341804 0  243544.066915 585474.859604 0  243040.448415 585184.975583 0  242438.10214 585337.38015 0  241313.102353 586562.339499 0  240538.107104 587787.382449 0  240114.641085 588588.939407 0  239388.100256 589437.382238 0  238188.104456 590512.346358 0  236938.100507 591362.349798 0  235813.10453 592537.396388 0  234864.502938 593178.7753880001 0  234463.097651 592862.357267 0  235113.0965 591662.3545979999 0  235713.101522 590412.346099 0  235777.688431 589976.7582779999 0  234943.583145 590706.265132 0  234462.482256 591490.2841159999 0  233801.497784 592112.940187 0  233388.099101 591787.394208 0  234013.093099 590437.393065 0  234776.217248 587148.7548100001 0  235163.093726 586562.3486189999 0  235313.098918 585483.229012 0  235250.59732 584662.298153 0  235588.093896 583337.379493 0  236329.432041 582199.858992 0  237188.096234 581462.3349939999 0  237463.088521 580212.335511 0  238350.592558 579057.652616 0  238591.415797 578574.847681 0  238313.094106 577612.328905 0  239229.696732 577695.769664 0  240195.161018 577513.008613 0  240614.996733 577149.8518770001 0  240663.091715 577412.332622 0  240288.092486 578662.334085 0  239942.357258 579508.095811 0  240438.100019 580212.3334220001 0  241338.095553 580387.375355 0  241238.099828 579137.369157 0  241788.097003 577887.370889 0  241983.554649 577241.9220939999 0  242054.178239 576927.8105029999 0  242588.100699 575737.366175 0  243149.324833 574898.583978 0  243695.278626 573919.517981 0  244268.494418 573724.8454239999 0  244995.134063 573930.2767810001 0  245417.314363 573391.601898 0  243450.599125 571859.479773 0  245776.797908 572599.8353060001 0  246779.639852 572973.285167 0  248034.741935 573186.082054 0  249413.10651 573162.3205520001 0  250496.922226 573271.1521899999 0  251613.105126 573237.3551319999 0  252421.824577 572846.032906 0  253256.245022 572580.4733130001 0  253739.471933 571960.9547369999 0  254174.511864 572149.8346569999 0  254484.944333 571684.194807 0  254384.108649 570891.346712 0  254344.002752 570218.26407 0  255025.609604 570829.0294979999 0  255715.005913 570489.264586 0  256218.846343 570774.828355 0  256834.349083 570508.5908 0  257390.092515 570014.308325 0  257624.431042 568493.478911 0  259355.811717 569380.021819 0  260033.372814 569617.066669 0  262679.741751 570320.699974 0  263289.115756 569524.817815 0  263463.114338 570512.301061 0  264638.198419 570687.3443539999 0  265058.220065 571334.378467 0  265447.561421 572077.90485 0  265488.125257 573137.3446020001 0  265131.937715 573963.293593 0  265432.389648 575093.068786 0  265638.122314 576338.029955 0  265750.630817 577371.8281319999 0  265738.570663 578561.9098850001 0  265875.630866 579139.630549 0  266213.129247 579862.311842 0  266563.130472 581112.314509 0  266238.135356 582362.310259 0  265938.12863 583612.320897 0  265738.131342 584762.3210189999 0  266875.638633 585365.358768 0  264018.7239399826 593650.4646671159 0  262236.3944351029 595831.1252656333 0  241846.246678 605206.1436625 0  240200.622106 608424.8903290001 0  240943.4862974102 610939.7757535663 0  236550.6094 599787.3577085 0  238528.1212051503 608102.9081793013 0  244413.4891967989 572609.5960859474 0  236382.0474488751 598808.3067022427 0  235369.601910944 600933.5380148316 0  235413.099011 591037.3503485 0  235446.2251831186 590266.6553871984 0  240475.5921005 578037.3333535 0  240413.173949154 577324.4280286073 0  240574.037899 606283.0066440001 0  263857.9179445 593618.2891454998 0  264153.4303974913 593343.916675058 0  242042.1833925 604946.7714812499 0  241650.3099635 605465.51584375 0  244613.6985165 572229.6575395 0  236631.8579695 598822.2989335 0  235140.029068 600860.444221 0  241767.7287175 604874.0596705 0  242140.15174975 604817.0853906251 0  234781.8558075 600573.1668855001 0  242091.167571125 604881.9284359375 0  234519.3558565 600373.162719 0  254604.8337712102 583989.0014118921 0  250699.5846056537 594617.3297041012 0  250540.4796469513 602258.2940568649 0  248483.7490186612 580334.7345534252 0  258549.2190328319 577893.951823392 0  257067.0067473103 590016.5327808241 0  243285.0921999099 596333.923437875 0  248333.1386145258 589098.0389905117 0  256142.8445072741 595883.3911551933 0  260245.1368072523 583315.2785712298 0  253472.3380211276 578932.2908163272 0  246432.3347504817 599884.5019511909 0  261555.9240922556 588041.186709004 0  247293.1100123104 605823.8307887657 0  246458.2798550911 593168.8646574575 0  252840.0183145193 588226.5564648228 0  249828.2874404451 584740.7888937403 0  255409.5660975206 600458.8956828594 0  260819.9733392385 574219.403683011 0  252584.2262054711 605722.6603825617 0  254049.8830611471 592547.4852571967 0  250015.4356193061 598425.2225922942 0  245872.072249477 577604.9761853142 0  262002.1583249522 579753.4663046852 0  257732.6630933878 586227.970805314 0  250242.5556457866 577017.3316409125 0  244921.6453001869 581816.6358421432 0  256520.3890639471 580904.824006648 0  240779.0970645865 599524.6679555867 0  257100.1829219198 574459.5922545703 0  239912.2630002034 595231.1172704464 0  244703.0875078634 590068.6945953515 0  242549.5490268674 592874.3693043783 0  251586.0465921376 581796.2215047925 0  246643.189997516 596527.447801719 0  251049.7658069622 591057.6752245198 0  253014.5731561695 596998.6601086652 0  238680.2197353724 584542.2309791476 0  259715.365803504 591937.1938619445 0  254097.157218761 575731.4494927844 0  246806.6408589328 586139.0877599345 0  246136.1179750556 602959.471719323 0  253520.7033332401 602835.180253843 0  244125.4295793909 607538.9817227355 0  252546.8895354472 599881.3279113505 0  258289.0983523553 600397.640191779 0  247518.7952199645 583037.3718217331 0  263140.3959879661 582529.2228421422 0  262894.8586894067 585442.3590432997 0  256968.6320599076 593040.7691844478 0  243573.0187527719 600218.2795730785 0  258888.5766127351 595139.7745218446 0  262588.7569809347 576734.8569237856 0  259318.4257992262 580601.2540325444 0  249963.3812725965 607065.7205847671 0  257494.5307999607 583482.5893534871 0  258906.4757205145 572278.8089438241 0  237751.446593475 587300.5805003279 0  255142.4708720699 604956.7580261135 0  258485.4978753244 597756.9250383095 0  255516.7820591553 587791.39641967 0  239758.4692108706 601926.8203218657 0  255873.0092222999 577739.5085867504
[...]
<PointData  Scalars="f_32-0"> 
<DataArray  type="Float64"  Name="f_32-0"  format="ascii">3.3017744463439852e+07  3.3108210063307934e+07  3.3209578504124418e+07  3.3287032942283481e+07  3.3337394786925990e+07  3.3406858687875081e+07  3.3428278043257806e+07  3.3443350503395721e+07  3.3443996590744834e+07  3.3460165229370464e+07  3.3466923405641273e+07  3.3465776073466849e+07  3.3479433124644246e+07  3.3580623436367221e+07  3.3643160753006123e+07  3.3697137481593214e+07  3.3768382766221225e+07  3.3844445306981869e+07  3.3853367781127058e+07  3.3864731801123947e+07  3.3920194017657362e+07  3.3961994310721509e+07  3.4007413845109180e+07  3.4031055172642797e+07  3.4042184018773310e+07  3.4065435724810980e+07  3.4072017445750013e+07  3.4083387428239688e+07  3.4104841455570713e+07  3.4118942601947799e+07  3.4123093183086127e+07  3.4134231125674762e+07  3.4160690370654918e+07  3.4181006642594792e+07  3.4184573241240114e+07  3.4199630729215026e+07  3.4215365443715245e+07  3.4228594968280941e+07  3.4236961413766526e+07  3.4243702765914813e+07  3.4253174039496325e+07  3.4262044002763070e+07  3.4270049785359673e+07  3.4277266000767291e+07  3.4283757608983412e+07  3.4285111029395498e+07  3.4288503355823919e+07  3.4292632766435251e+07  3.4295729655708432e+07  3.4297186965026900e+07  3.4297518951294906e+07  3.4297835261634871e+07  3.4297700167296931e+07  3.4298107875266261e+07  3.4299378450499110e+07  3.4299259039501600e+07  3.4299236871375732e+07  3.4299733776555285e+07  3.4298281340683669e+07  3.4293475854871541e+07  3.4287073284569383e+07  3.4280924517039984e+07  3.4269663482132912e+07  3.4246920365278006e+07  3.4236651648896247e+07  3.4244470202940032e+07  3.4249127616086200e+07  3.4250430218128242e+07  3.4251884480014160e+07  3.4254206003923781e+07  3.4257540244216703e+07  3.4269618923476867e+07  3.4273592875667833e+07  3.4275599967022106e+07  3.4276047305843160e+07  3.4273841213977106e+07  3.4267832946798459e+07  3.4260890559912644e+07  3.4250948773431316e+07  3.4247660033848390e+07  3.4247397742362320e+07  3.4247611099355824e+07  3.4247610257701375e+07  3.4246674797379285e+07  3.4245989202859722e+07  3.4245200959310971e+07  3.4242183289133012e+07  3.4234233752787046e+07  3.4220620507667214e+07  3.4214000154514812e+07  3.4219170297567576e+07  3.4222152063987590e+07  3.4223220627511255e+07  3.4222376980249576e+07  3.4222838705317810e+07  3.4221928005625412e+07  3.4221789898040876e+07  3.4220521351428248e+07  3.4219892822569095e+07  3.4218339744983040e+07  3.4205322230887525e+07  3.4189304438670732e+07  3.4164766578517377e+07  3.4136631352406211e+07  3.4096229166030206e+07  3.4037939423917986e+07  3.3957304992961869e+07  3.3860464460682519e+07  3.3751471614597194e+07  3.3646092794533454e+07  3.3498722468134411e+07  3.3460157479752239e+07  3.3496564922065426e+07  3.3607249189119354e+07  3.3675633404360399e+07  3.3704229795426026e+07  3.3730482276536487e+07  3.3760819053517148e+07  3.3782959044978283e+07  3.3799333645550266e+07  3.3803434455832459e+07  3.3803483603353620e+07  3.3797369111951277e+07  3.3782418672498509e+07  3.3777216950785019e+07  3.3788283307741806e+07  3.3795637338772103e+07  3.3798230544329420e+07  3.3798267492030308e+07  3.3790401021620095e+07  3.3743428524259098e+07  3.3727275344521455e+07  3.3697753374466814e+07  3.3679000866306044e+07  3.3650943251971036e+07  3.3618362144657508e+07  3.3579401950353704e+07  3.3547170254392840e+07  3.3533096408847790e+07  3.3534594005003620e+07  3.3537320448280949e+07  3.3536684010313842e+07  3.3537479374647029e+07  3.3538046326579537e+07  3.3537976066334192e+07  3.3532620614559684e+07  3.3511941577096686e+07  3.3442206453590758e+07  3.3258581702787019e+07  3.3065449409202628e+07  3.2928249018055812e+07  3.2859493226957411e+07  3.2832500051348526e+07  3.2733245274318133e+07  3.2664085874588050e+07  3.2608914913784787e+07  3.2591463262137294e+07  3.2536932813437309e+07  3.2471620871436678e+07  3.2459825626471687e+07  3.2452676517332546e+07  3.2408521012447260e+07  3.2293470866621129e+07  3.2136828126515530e+07  3.1997726366855711e+07  3.1827058884676386e+07  3.1711248301931854e+07  3.1631408515377808e+07  3.1600360654728871e+07  3.1590425727840904e+07  3.1582609523557629e+07  3.1584927450086169e+07  3.1585551270613085e+07  3.1585013019019466e+07  3.1587628614545435e+07  3.1592307754618119e+07  3.1607870469678376e+07  3.1629979640531827e+07  3.1650112716285817e+07  3.1652638981018294e+07  3.1661046894053087e+07  3.1707169995100729e+07  3.1715148259233635e+07  3.1716271484098498e+07  3.1722096771599073e+07  3.1721468001204044e+07  3.1718320564431515e+07  3.1709062830204669e+07  3.1692359582967445e+07  3.1672939613845777e+07  3.1668216367642373e+07  3.1690306501011036e+07  3.1784600956299447e+07  3.1875124431169000e+07  3.1997363524124254e+07  3.2163682902237743e+07  3.2333227219357282e+07  3.2548309075908840e+07  3.2802256592440311e+07  3.2949941067325361e+07  3.3466544092482880e+07  3.3856842239345543e+07  3.4276051544084594e+07  3.4296390206678778e+07  3.4299207066843249e+07  3.4228120548823908e+07  3.4275427146533035e+07  3.2459305019910589e+07  3.4216200214655317e+07  3.4223001021701112e+07  3.3790916119686581e+07  3.3781216414209500e+07  3.3536734135542892e+07  3.3537927944762480e+07  3.4264608888873108e+07  3.3466535413334467e+07  3.3465459477188971e+07  3.4273055142595395e+07  3.4278702236941226e+07  3.2459305315971121e+07  3.4216400967890918e+07  3.4223000786861122e+07  3.4250653276107803e+07  3.4271420187396154e+07  3.4222662446844757e+07  3.4272250349064879e+07  3.4222657833877251e+07  3.2751094773917444e+07  3.3939793908949338e+07  3.4183088058924884e+07  3.2638600221798502e+07  3.1367696098448366e+07  3.3482874767078489e+07  3.4121834063863978e+07  3.3642366087773666e+07  3.3915395421956100e+07  3.2464217055681121e+07  3.1938943059052516e+07  3.4171045179203466e+07  3.3190772227745250e+07  3.4253338304862015e+07  3.3951438911829725e+07  3.3409100365876459e+07  3.3126626782090820e+07  3.4097225397002921e+07  3.1552003520009007e+07  3.4218157811542749e+07  3.3753866970249802e+07  3.4097127441527404e+07  3.2640531035894468e+07  3.1807208184548590e+07  3.3010931528489962e+07  3.2136451499978885e+07  3.3106184257271245e+07  3.1998237922042124e+07  3.4207162348258719e+07  3.1481668249924935e+07  3.4141466977524646e+07  3.3831696943301432e+07  3.4026315034029990e+07  3.2582929765662227e+07  3.4081141391987212e+07  3.3715171788553201e+07  3.4009845260750808e+07  3.3620171381081603e+07  3.3590773737974539e+07  3.1590795460203864e+07  3.3435428314570475e+07  3.4226358545711748e+07  3.4168915980948389e+07  3.4281633526505761e+07  3.4110891098695934e+07  3.4067972371009462e+07  3.3055843593815818e+07  3.2364505486455660e+07  3.2847806578895312e+07  3.3731482803332634e+07  3.4199393561302260e+07  3.3831759853411011e+07  3.1570970062819220e+07  3.1832752619896926e+07  3.4247783881040744e+07  3.2531970379406136e+07  3.1595702852781873e+07  3.3713728817501321e+07  3.4190295687711626e+07  3.3972400825533129e+07  3.3277557921611417e+07  3.4237057703167871e+07  3.1525717067403004e+07  3.3426183030041914e+07  3.3381740938664794e+07  3.3868683763882585e+07  3.2948678610601496e+07  3.2320925469493289e+07  3.3129154580087416e+07  3.3547193302836202e+07  3.2307257345240060e+07  3.2352496218866583e+07  3.2907537565474525e+07  3.3273052294937264e+07  3.4274320052386276e+07  3.4221286793820769e+07  3.2911154513518982e+07  3.4259210442477077e+07  3.4146385308497511e+07  3.4164354496405661e+07  3.4193395516031303e+07  3.3527904191780087e+07  3.3306230437016189e+07  3.4023579572279774e+07  3.4125605359672934e+07  3.3405240084633213e+07  3.4216763685930386e+07  3.3121487560518268e+07  3.3901335642524555e+07  3.1675447564634014e+07  3.2430645352212515e+07  3.3994161181108378e+07  3.4164292623046219e+07  3.3817940661670089e+07  3.4040034298381060e+07  3.3651681044834860e+07  3.4078129183394551e+07  3.1394550102335207e+07  3.2805993456126433e+07  3.2810037348047405e+07  3.4181938863922462e+07  3.3948767118990004e+07  3.2002447761781722e+07  3.4231654830182858e+07  3.3816973975673392e+07  3.4224575217892073e+07  3.1637440837312054e+07  3.4273930535802990e+07  3.4272314613996886e+07  3.2793740439150888e+07  3.3441707925658979e+07  3.4272781507422946e+07  3.4283629942863770e+07  3.4211162733355820e+07  3.4215600039622381e+07  3.3770853028992988e+07  3.1549062085255757e+07  3.4228263065907493e+07  3.4190242619523548e+07  3.2828776686971936e+07  3.3426910205956779e+07  3.3312533977594398e+07  3.4280365990238056e+07  3.4271879631691448e+07  3.3735336477167428e+07  3.4244595614604250e+07  3.4260327055838250e+07  3.4266609226766407e+07  3.4284495041897461e+07  3.3365936694782835e+07  3.2444356608136516e+07  3.3774727028067373e+07  3.1581572625531040e+07  3.3381525926867299e+07  3.1820252111045055e+07  3.3741110850174055e+07  3.4295009268729411e+07  3.3669675068057589e+07  3.3781523641454779e+07  3.4212264207958758e+07  3.3437863767887115e+07  3.1640308649141688e+07  3.3776603918723151e+07  3.1712540831462793e+07  3.2611302686077494e+07  3.4215212842345312e+07  3.4203490996221155e+07  3.3521996815724384e+07  3.4295141247864708e+07  3.2112811825283054e+07  3.4231233998350814e+07  3.3942137421391487e+07  3.1708648321554299e+07  3.1570362634001713e+07  3.1550825067029554e+07  3.4116469668725580e+07  3.4236287644535460e+07  3.4221728465919279e+07  3.4050559471029796e+07  3.4277557560620517e+07  3.3818385874511585e+07  3.2459155818912290e+07  3.2458567227978930e+07  3.1614310000669286e+07  3.4272666613908231e+07  3.4274596669012256e+07  3.4275383316902481e+07  3.4185616827339053e+07  3.4198334613810956e+07  3.4278003270549797e+07  3.4265835482123375e+07  3.3695977373114958e+07  3.4298886847333893e+07  3.4298491280294150e+07  3.3427879063319203e+07  3.1650587242765844e+07  3.3527782608234052e+07  3.4245479095103115e+07  3.3635461732663259e+07  3.3604812524270348e+07  3.4296314235783666e+07  3.3527242773106400e+07  3.4140298274479821e+07  3.2613764703759983e+07  3.2840035041026045e+07  3.2780841871022437e+07  3.2901517959276736e+07  3.4219767891049743e+07  3.3421410189425386e+07  3.3447562327921141e+07  3.3391245401992176e+07  3.3443844940701768e+07  3.3321117159319717e+07  3.1702134096755233e+07  3.1658993160774194e+07  3.3489625784364551e+07  3.2747890368206110e+07  3.3802136565013543e+07  3.3801754083892994e+07  3.4297685344478101e+07  3.3909359555851974e+07  3.3789199537516132e+07  3.3476350446896963e+07  3.3411552704445358e+07  3.3429561355076544e+07  3.3473403556768812e+07  3.3426513164052036e+07  3.3452895749242391e+07  3.3556157076120727e+07  3.3469770784542877e+07  3.3513062954273500e+07  3.3611524488466151e+07  3.3564734807370864e+07  3.3173765322100148e+07  3.3331254074588951e+07  3.2214253926548883e+07  3.2308839059943646e+07  3.2199643241867192e+07  3.2072248742245153e+07  3.2117760710815564e+07  3.1915280779308949e+07  3.2050000158838674e+07  3.1976220022981349e+07  3.1672812392333698e+07  3.1599712384200208e+07  3.1660531045787148e+07  3.1675006923142608e+07  3.1663924276671000e+07  3.1723217359617241e+07  3.1675174432114989e+07  3.1827491953532800e+07  3.1805012395261403e+07  3.1701164957508847e+07  3.1939807600705836e+07  3.1845326358085018e+07  3.1991579038253598e+07  3.1904208001702845e+07  3.2097589436909750e+07  3.2370564460434902e+07  3.2196289028936163e+07  3.2877564639605299e+07  3.2401879118329886e+07  3.2636892497199301e+07  3.2947631839010477e+07  3.4028183524358667e+07  3.3976467348046400e+07  3.3905209186996147e+07  3.3967370472917974e+07  3.4150181912267990e+07  3.4203992956154682e+07  3.4174093408734173e+07  3.4200769266225144e+07  3.2854142254052684e+07  3.2475547859027211e+07  3.2518978000370640e+07  3.2721052501612451e+07  3.1529426332148071e+07  3.1606347070296049e+07  3.1378109905225635e+07  3.1542171605606154e+07  3.1418548023756880e+07  3.1345103260705415e+07  3.3542085336371336e+07  3.3617695490394138e+07  3.3385859043942396e+07  3.3514296370264873e+07  3.3380683598082691e+07  3.4131226991468646e+07  3.4078665586040355e+07  3.3678017449868314e+07  3.3542763633994207e+07  3.3765538333493322e+07  3.3530575102939915e+07  3.3735234405907154e+07  3.3644668999206290e+07  3.3841015419629887e+07  3.3964567518964894e+07  3.3907862194366805e+07  3.2108775785758056e+07  3.2408056906940911e+07  3.2672324219584290e+07  3.2161323490154825e+07  3.2020772701231606e+07  3.1920933474991597e+07  3.2262253583759755e+07  3.1718786121914588e+07  3.1715030556224670e+07  3.2106775011501625e+07  3.2130906084480163e+07  3.4137265842276901e+07  3.4201356991085336e+07  3.4168005283039428e+07  3.4202856357217312e+07  3.4241617489844985e+07  3.4022602099158108e+07  3.3889296918252818e+07  3.3997789086944751e+07  3.3949336407650799e+07  3.3342536050137348e+07  3.3480293251480170e+07  3.3404455119581886e+07  3.3273614892990246e+07  3.4136061694730669e+07  3.4103695417720616e+07  3.4082188012793191e+07  3.4063115077583544e+07  3.1489522017480772e+07  3.1532773454435531e+07  3.3733044129799977e+07  3.3742473281698562e+07  3.3657477963902138e+07  3.4088511216250792e+07  3.4056034227513567e+07  3.4133287474083059e+07  3.4050247538250074e+07  3.2794077064480562e+07  3.2491923382372171e+07  3.2537917013633683e+07  3.2712186318860143e+07  3.2527835058378354e+07  3.2624002560866237e+07  3.2088542735166579e+07  3.1622231576802995e+07  3.1799438923213817e+07  3.1515546263992619e+07  3.1911145610324610e+07  3.1817842920732666e+07  3.2791018849897742e+07  3.3148104329787102e+07  3.3151035018727202e+07  3.3057919641179860e+07  3.1852671601603121e+07  3.2200781970873456e+07  3.2243743395740591e+07  3.2285517970138974e+07  3.1912039844223928e+07  3.2115130304747418e+07  3.3075440332244482e+07  3.3251862619115412e+07  3.3025816196531259e+07  3.2960288786277466e+07  3.1884392313772801e+07  3.2268225779318590e+07  3.1695321944382325e+07  3.2156803536323141e+07  3.1488091565197639e+07  3.1537508448653713e+07  3.1434332620591205e+07  3.1408231630889807e+07  3.1518385670787815e+07  3.1538203252114091e+07  3.1503919852295656e+07  3.3824505123629145e+07  3.3747825691964738e+07  3.3894364271548413e+07  3.3870234153500661e+07  3.4032318315063491e+07  3.2454204803168751e+07  3.2433675137618497e+07  3.4040347667320244e+07  3.3796184784997188e+07  3.3632080639353216e+07  3.3573918368406601e+07  3.3767884297670454e+07  3.4065074933078840e+07  3.4016680232287049e+07  3.3574875418513902e+07  3.3578743882439300e+07  3.3664088342140295e+07  3.3448668386661720e+07  3.1548938877576709e+07  3.1645492987794004e+07  3.1557575660691079e+07  3.3416399851906300e+07  3.3548253313080803e+07  3.4198568527635291e+07  3.4221804309038974e+07  3.4142870668204308e+07  3.4197083948425017e+07  3.4148341658189595e+07  3.4138504681434251e+07  3.4069752210305795e+07  3.4047103329893202e+07  3.2921150347242877e+07  3.2181952744801108e+07  3.3646654719226979e+07  3.3735036620359629e+07  3.1481707589980237e+07  3.1666147817667741e+07  3.1617851418533780e+07  3.2182820011824463e+07  3.2727098283392821e+07  3.3421385989695843e+07  3.3271981143239856e+07  3.3200392904806416e+07  3.3363478881261457e+07  3.3366340019518942e+07  3.3410445005981561e+07  3.3397683533393912e+07  3.3461035340837371e+07  3.3842415022298090e+07  3.3842064787710719e+07  3.2881636002577066e+07  3.2637894246031363e+07  3.2358169439382229e+07  3.2558603000632457e+07  3.2380331808289483e+07  3.2235985573926408e+07  3.3101187898269195e+07  3.3180080488720331e+07  3.3015172129661363e+07  3.4193009630818829e+07  3.3267706921354648e+07  3.2613152314816620e+07  3.3739669982030094e+07  3.3887525615091018e+07  3.3996975029081143e+07  3.3928166812674940e+07  3.1904303048228774e+07  3.1631341511804014e+07  3.1540961156099416e+07  3.3400574443413354e+07  3.1703926489711560e+07  3.3483042630601861e+07  3.1912215387354791e+07  3.1613794423646659e+07  3.3477353265916068e+07  3.2910120658610098e+07  3.3999143969078571e+07  3.1420632929344248e+07  3.1459022322092433e+07  3.1346071182834059e+07  3.1384305968271829e+07  3.1342921783955112e+07  3.3691200325503610e+07  3.1975747002581693e+07  3.2098388456919204e+07  3.2036499445433609e+07  3.4185617016701177e+07  3.3575032948720142e+07  3.3375780192242995e+07  3.3343370408643618e+07  3.3340013724915326e+07  3.1470271779489800e+07  3.4064792827146038e+07  3.4074760507716022e+07  3.1947012218898423e+07  3.1945614369644325e+07  3.2944074871879365e+07  3.3032198415821768e+07  3.1997492178040452e+07  3.3015750109294280e+07  3.3696565810492508e+07  3.3756830049540646e+07  3.3647900813963354e+07  3.3781838978594452e+07  3.1711363078287199e+07  3.1524296829181761e+07  3.1616404818259679e+07  3.1570499273045871e+07  3.4091003690231830e+07  3.1678382857564740e+07  3.1848408536969062e+07  3.2002045278618511e+07  3.3333098593851358e+07  3.3309692890840638e+07  3.3351839805805672e+07  3.3273568109928276e+07  3.1614337910225876e+07  3.1456686173565544e+07  3.1534497966956720e+07  3.3271956253222995e+07  3.4151436125588693e+07  3.4166264592279807e+07  3.4182450785155192e+07  3.3524465735055581e+07  3.4047304263303988e+07  3.3195567185579177e+07  3.2470696469400536e+07  3.2391499724693924e+07  3.2520053196959015e+07  3.3853892116845764e+07  3.3647628154611617e+07  3.3696781920221880e+07  3.1407530984627094e+07  3.1363448293743387e+07  3.1383615122917399e+07  3.2756332465111546e+07  3.2884481922388591e+07  3.2861007237914644e+07  3.2709756629646424e+07  3.3918953925963052e+07  3.1748957035963926e+07  3.1733539744809948e+07  3.1754180921134762e+07  3.3476332649405446e+07  3.3448058610422082e+07  3.3460213845690299e+07  3.2012906081479877e+07  3.2111897653137088e+07  3.2175335338282902e+07  3.1517347801302444e+07  3.1672855646559153e+07  3.1653772392092943e+07  3.3519689744577743e+07  3.3571270435369670e+07  3.3545575168631580e+07  3.3495692552846212e+07  3.3505560097271580e+07  3.3502513444874346e+07  3.3498249097842567e+07  3.2214771411126401e+07  3.1702707416553345e+07  3.2970654571073357e+07  3.4039327135527924e+07  3.2618676722033728e+07  3.2565288266531602e+07  3.1404536707473673e+07  3.1488094606446590e+07  3.1656365679848805e+07  3.1696043598742310e+07  3.1533373674345225e+07  3.1410376105515957e+07  3.3382817663806912e+07  3.3329858984998137e+07  3.3328200379736952e+07  3.3739821559993818e+07  3.3693423997358352e+07  3.2098955222726371e+07  3.2246454959016792e+07  3.1868653678999864e+07  3.1928429556146014e+07  3.2192054866306763e+07  3.1779821949868072e+07  3.1693481267218594e+07  3.1616696010548480e+07  3.2281677726754446e+07  3.4184124167884663e+07  3.3382551557828203e+07  3.3450701426465623e+07  3.3269882839166980e+07  3.4083879793193109e+07  3.4087321478216238e+07  3.4066229300367497e+07  3.2623749569254391e+07  3.2797626955764551e+07  3.2663174800190527e+07  3.2175861787235130e+07  3.2940003882331766e+07  3.2919393887672100e+07  3.1500727882965092e+07  3.1517341613715213e+07  3.3860597997091353e+07  3.3857242295282245e+07  3.3890825622741975e+07  3.1596935986021731e+07  3.1685853209664453e+07  </DataArray> 
</PointData> 
</Piece>
</UnstructuredGrid>
</VTKFile>