<?xml version="1.0"?>
<VTKFile type="UnstructuredGrid"  version="0.1"  >
<UnstructuredGrid>
<Piece  NumberOfPoints="784" NumberOfCells="1320">
<Points>
<DataArray  type="Float64"  NumberOfComponents="3"  format="ascii">266913.131276 586512.314988 0  266738.13716 587762.325998 0  266363.132677 589012.328643 0  266175.641078 590169.601714 0  265666.575631 591040.7699119999 0  264875.64001 591687.766419 0  264900.636161 591845.049083 0  266088.14152 592012.3229499999 0  265561.959259 592661.17101 0  264288.136855 593037.368683 0  263865.194033 593999.8486949999 0  263850.641856 593236.729596 0  263625.634872 592756.525286 0  262689.574249 593299.848918 0  262475.636737 594003.0907310001 0  261934.554452 594340.929792 0  261725.631329 594932.094409 0  261729.256443 595728.498809 0  262138.136044 595012.330523 0  262288.141035 596262.333669 0  261488.994028 597511.480605 0  261234.15567 598316.338928 0  260815.635063 599014.863821 0  261400.643658 599389.7367680001 0  261322.963374 600022.185065 0  261119.455248 600931.061306 0  261607.436504 601293.0629359999 0  260807.446929 602089.899812 0  260025.642878 602988.868697 0  259613.135827 603937.3854499999 0  259050.643123 604100.987861 0  258411.880065 603988.6335979999 0  257764.357469 604449.872569 0  257971.239668 605320.429125 0  258041.396867 605740.635381 0  257188.143339 606987.394312 0  256038.141198 608112.3554550001 0  254788.141633 609087.4026939999 0  253588.140656 609812.362881 0  252338.135706 609737.4048949999 0  251088.138116 609787.404055 0  249963.12851 610287.399466 0  248613.130524 610462.365857 0  247363.132198 610687.407659 0  246113.130532 610837.411551 0  245832.347438 610918.209918 0  245016.946433 610958.5639439999 0  244313.129646 610762.372259 0  244400.622144 611378.093316 0  243939.669208 612460.8930899999 0  242960.649733 611984.892792 0  242170.381438 611919.647351 0  241888.122919 611112.375656 0  241393.380757 610467.6456149999 0  240594.157528 611306.369822 0  240525.621947 610804.648112 0  240363.123632 610512.3745050001 0  239113.123247 610262.374278 0  239813.12126 609037.412459 0  240588.122952 607812.368199 0  241013.119545 606625.9534560001 0  241454.373249 605724.888025 0  242238.120107 604687.3993 0  243088.121248 603462.362766 0  242860.319451 603007.3932640001 0  241563.116617 603812.361344 0  241778.400913 604327.642217 0  242059.837234 604824.879102 0  241475.620201 604923.2402390001 0  241462.182234 605449.881372 0  240906.219606 605674.888222 0  240241.856192 606891.125066 0  239891.734044 607841.012479 0  239048.653431 608724.889805 0  238118.054545 608974.895967 0  238888.111029 607337.406468 0  239738.119992 606212.362729 0  240288.12044 605687.4075229999 0  240380.212307 604729.521696 0  239347.309632 604603.204501 0  238888.112036 604387.408787 0  237913.11173 604687.401386 0  236784.172023 604499.882783 0  236883.408793 603717.08334 0  236154.933927 603595.565605 0  235688.103943 602912.369264 0  235763.108033 601662.366516 0  236363.110805 600412.35884 0  236738.107995 599162.356577 0  236525.607944 598482.2412899999 0  236138.109208 599362.357613 0  235725.063048 600325.4466510001 0  235091.948926 601408.5220979999 0  235188.10921 600312.366344 0  234375.602405 600833.9674270001 0  234663.109308 599912.358011 0  234138.105122 600062.365644 0  233955.307245 599029.561063 0  233338.103791 598387.401556 0  233988.09795 597862.356384 0  235138.101489 596637.3947750001 0  235563.1039 595387.392428 0  236513.103639 594212.356312 0  237163.10684 592987.3929869999 0  238313.103031 591862.3515540001 0  239513.107028 590812.3512640001 0  240638.102135 589787.387271 0  241463.109549 588587.378486 0  242294.489816 587443.735215 0  242913.101099 586512.341804 0  243544.066915 585474.859604 0  243040.448415 585184.975583 0  242438.10214 585337.38015 0  241313.102353 586562.339499 0  240538.107104 587787.382449 0  240114.641085 588588.939407 0  239388.100256 589437.382238 0  238188.104456 590512.346358 0  236938.100507 591362.349798 0  235813.10453 592537.396388 0  234864.502938 593178.7753880001 0  234463.097651 592862.357267 0  235113.0965 591662.3545979999 0  235713.101522 590412.346099 0  235777.688431 589976.7582779999 0  234943.583145 590706.265132 0  234462.482256 591490.2841159999 0  233801.497784 592112.940187 0  233388.099101 591787.394208 0  234013.093099 590437.393065 0  234776.217248 587148.7548100001 0  235163.093726 586562.3486189999 0  235313.098918 585483.229012 0  235250.59732 584662.298153 0  235588.093896 583337.379493 0  236329.432041 582199.858992 0  237188.096234 581462.3349939999 0  237463.088521 580212.335511 0  238350.592558 579057.652616 0  238591.415797 578574.847681 0  238313.094106 577612.328905 0  239229.696732 577695.769664 0  240195.161018 577513.008613 0  240614.996733 577149.8518770001 0  240663.091715 577412.332622 0  240288.092486 578662.334085 0  239942.357258 579508.095811 0  240438.100019 580212.3334220001 0  241338.095553 580387.375355 0  241238.099828 579137.369157 0  241788.097003 577887.370889 0  241983.554649 577241.9220939999 0  242054.178239 576927.8105029999 0  242588.100699 575737.366175 0  243149.324833 574898.583978 0  243695.278626 573919.517981 0  244268.494418 573724.8454239999 0  244995.134063 573930.2767810001 0  245417.314363 573391.601898 0  243450.599125 571859.479773 0  245776.797908 572599.8353060001 0  246779.639852 572973.285167 0  248034.741935 573186.082054 0  249413.10651 573162.3205520001 0  250496.922226 573271.1521899999 0  251613.105126 573237.3551319999 0  252421.824577 572846.032906 0  253256.245022 572580.4733130001 0  253739.471933 571960.9547369999 0  254174.511864 572149.8346569999 0  254484.944333 571684.194807 0  254384.108649 570891.346712 0  254344.002752 570218.26407 0  255025.609604 570829.0294979999 0  255715.005913 570489.264586 0  256218.846343 570774.828355 0  256834.349083 570508.5908 0  257390.092515 570014.308325 0  257624.431042 568493.478911 0  259355.811717 569380.021819 0  260033.372814 569617.066669 0  262679.741751 570320.699974 0  263289.115756 569524.817815 0  263463.114338 570512.301061 0  264638.198419 570687.3443539999 0  265058.220065 571334.378467 0  265447.561421 572077.90485 0  265488.125257 573137.3446020001 0  265131.937715 573963.293593 0  265432.389648 575093.068786 0  265638.122314 576338.029955 0  265750.630817 577371.8281319999 0  265738.570663 578561.9098850001 0  265875.630866 579139.630549 0  266213.129247 579862.311842 0  266563.130472 581112.314509 0  266238.135356 582362.310259 0  265938.12863 583612.320897 0  265738.131342 584762.3210189999 0  266875.638633 585365.358768 0  264018.7239399826 593650.4646671159 0  262236.3944351029 595831.1252656333 0  241846.246678 605206.1436625 0  240200.622106 608424.8903290001 0  240943.4862974102 610939.7757535663 0  236550.6094 599787.3577085 0  238528.1212051503 608102.9081793013 0  244413.4891967989 572609.5960859474 0  236382.0474488751 598808.3067022427 0  235369.601910944 600933.5380148316 0  235413.099011 591037.3503485 0  235446.2251831186 590266.6553871984 0  240475.5921005 578037.3333535 0  240413.173949154 577324.4280286073 0  240574.037899 606283.0066440001 0  263857.9179445 593618.2891454998 0  264153.4303974913 593343.916675058 0  242042.1833925 604946.7714812499 0  241650.3099635 605465.51584375 0  244613.6985165 572229.6575395 0  236631.8579695 598822.2989335 0  235140.029068 600860.444221 0  241767.7287175 604874.0596705 0  242140.15174975 604817.0853906251 0  234781.8558075 600573.1668855001 0  242091.167571125 604881.9284359375 0  234519.3558565 600373.162719 0  254604.8337712102 583989.0014118921 0  250699.5846056537 594617.3297041012 0  250540.4796469513 602258.2940568649 0  248483.7490186612 580334.7345534252 0  258549.2190328319 577893.951823392 0  257067.0067473103 590016.5327808241 0  243285.0921999099 596333.923437875 0  248333.1386145258 589098.0389905117 0  256142.8445072741 595883.3911551933 0  260245.1368072523 583315.2785712298 0  253472.3380211276 578932.2908163272 0  246432.3347504817 599884.5019511909 0  261555.9240922556 588041.186709004 0  247293.1100123104 605823.8307887657 0  246458.2798550911 593168.8646574575 0  252840.0183145193 588226.5564648228 0  249828.2874404451 584740.7888937403 0  255409.5660975206 600458.8956828594 0  260819.9733392385 574219.403683011 0  252584.2262054711 605722.6603825617 0  254049.8830611471 592547.4852571967 0  250015.4356193061 598425.2225922942 0  245872.072249477 577604.9761853142 0  262002.1583249522 579753.4663046852 0  257732.6630933878 586227.970805314 0  250242.5556457866 577017.3316409125 0  244921.6453001869 581816.6358421432 0  256520.3890639471 580904.824006648 0  240779.0970645865 599524.6679555867 0  257100.1829219198 574459.5922545703 0  239912.2630002034 595231.1172704464 0  244703.0875078634 590068.6945953515 0  242549.5490268674 592874.3693043783 0  251586.0465921376 581796.2215047925 0  246643.189997516 596527.447801719 0  251049.7658069622 591057.6752245198 0  253014.5731561695 596998.6601086652 0  238680.2197353724 584542.2309791476 0  259715.365803504 591937.1938619445 0  254097.157218761 575731.4494927844 0  246806.6408589328 586139.0877599345 0  246136.1179750556 602959.471719323 0  253520.7033332401 602835.180253843 0  244125.4295793909 607538.9817227355 0  252546.8895354472 599881.3279113505 0  258289.0983523553 600397.640191779 0  247518.7952199645 583037.3718217331 0  263140.3959879661 582529.2228421422 0  262894.8586894067 585442.3590432997 0  256968.6320599076 593040.7691844478 0  243573.0187527719 600218.2795730785 0  258888.5766127351 595139.7745218446 0  262588.7569809347 576734.8569237856 0  259318.4257992262 580601.2540325444 0  249963.3812725965 607065.7205847671 0  257494.5307999607 583482.5893534871 0  258906.4757205145 572278.8089438241 0  237751.446593475 587300.5805003279 0  255142.4708720699 604956.7580261135 0  258485.4978753244 597756.9250383095 0  255516.7820591553 587791.39641967 0  239758.4692108706 601926.8203218657 0  255873.0092222999 577739.5085867504
[...]
<PointData  Scalars="f_24704-0"> 
<DataArray  type="Float64"  Name="f_24704-0"  format="ascii">1.1939216328411438e+07  1.1978729961316770e+07  1.2024177925660651e+07  1.2060683771973226e+07  1.2084538500306780e+07  1.2119402097149473e+07  1.2132323139551155e+07  1.2144505171711398e+07  1.2143956113757333e+07  1.2148181414070159e+07  1.2152508886949431e+07  1.2150891376810534e+07  1.2153940062750403e+07  1.2208146515103977e+07  1.2251859355804998e+07  1.2295027382755836e+07  1.2358921465546984e+07  1.2435815934278328e+07  1.2446320084493529e+07  1.2457577108541263e+07  1.2518609489540277e+07  1.2568392498369629e+07  1.2627602308150763e+07  1.2661463678831136e+07  1.2677772855150638e+07  1.2713652442773385e+07  1.2724349150659679e+07  1.2742730487243731e+07  1.2781330762677250e+07  1.2809143302120568e+07  1.2817852829530859e+07  1.2842901373133752e+07  1.2908732616925577e+07  1.2963867740325103e+07  1.2973963510842290e+07  1.3018030251239730e+07  1.3066872765305407e+07  1.3110044954870829e+07  1.3138248847069431e+07  1.3162956565704189e+07  1.3198882694132905e+07  1.3233051784414815e+07  1.3264990439029617e+07  1.3294543679542281e+07  1.3321441723028822e+07  1.3327073061526690e+07  1.3341308579207225e+07  1.3358500483506557e+07  1.3370690768105034e+07  1.3376008847230835e+07  1.3377310719834125e+07  1.3378529227497436e+07  1.3378606540629745e+07  1.3381107782795815e+07  1.3385670422423450e+07  1.3385349506084906e+07  1.3385438978590548e+07  1.3387145600749074e+07  1.3382626955962976e+07  1.3366344383881796e+07  1.3345231849558756e+07  1.3325955561111437e+07  1.3292432733544661e+07  1.3234838654728843e+07  1.3219905943077164e+07  1.3262085771349663e+07  1.3278271887837050e+07  1.3282720297629958e+07  1.3287430089796405e+07  1.3294939699340902e+07  1.3305786735184463e+07  1.3345566523790112e+07  1.3358511528192474e+07  1.3364586166803030e+07  1.3365806594220482e+07  1.3359237184741406e+07  1.3339663734230699e+07  1.3316771179643389e+07  1.3285092003846262e+07  1.3276934601130232e+07  1.3277489078545021e+07  1.3279843634551918e+07  1.3280522707927795e+07  1.3278840149758458e+07  1.3277775220847005e+07  1.3276180889299296e+07  1.3269523848859143e+07  1.3251760533806169e+07  1.3223447360218560e+07  1.3213806070317473e+07  1.3229964733941937e+07  1.3237786801611627e+07  1.3240365888309233e+07  1.3238260963062754e+07  1.3239194845371364e+07  1.3236989633505091e+07  1.3236541018836748e+07  1.3233430864196084e+07  1.3231900936921664e+07  1.3228212928152813e+07  1.3197472325872717e+07  1.3161996357559370e+07  1.3110200624589147e+07  1.3052871776435550e+07  1.2974274829843078e+07  1.2866953650124505e+07  1.2732969586339055e+07  1.2592934446884235e+07  1.2468686298254687e+07  1.2383826805724377e+07  1.2330893670545589e+07  1.2391306816885686e+07  1.2492170019789765e+07  1.2669362689071519e+07  1.2765159930819130e+07  1.2804184997397143e+07  1.2839968104121549e+07  1.2881439412782637e+07  1.2911407196057945e+07  1.2932580052104818e+07  1.2937256629223408e+07  1.2937301973901303e+07  1.2930090388562553e+07  1.2910659527690236e+07  1.2903758649423448e+07  1.2918206559484456e+07  1.2927431288314614e+07  1.2930347564149281e+07  1.2930348490288863e+07  1.2920830796423381e+07  1.2858992792767040e+07  1.2838016419723842e+07  1.2800350824610107e+07  1.2777006846845258e+07  1.2743220380470157e+07  1.2705569045946626e+07  1.2662091186022453e+07  1.2627781239882994e+07  1.2613973965349359e+07  1.2616004959247416e+07  1.2619138984153578e+07  1.2618644957436243e+07  1.2619906969746847e+07  1.2620640246843724e+07  1.2620549401390957e+07  1.2614440657450637e+07  1.2592274832282135e+07  1.2520963618179746e+07  1.2349043355586512e+07  1.2196014686926864e+07  1.2099989401194077e+07  1.2055860825057659e+07  1.2039213797632314e+07  1.1980612986472638e+07  1.1941802373246625e+07  1.1912137869954113e+07  1.1902576915100805e+07  1.1872605040492881e+07  1.1839239008084949e+07  1.1836454123224596e+07  1.1830262864828832e+07  1.1804867921867987e+07  1.1744629647762334e+07  1.1677252322838575e+07  1.1636855824880935e+07  1.1612179324108610e+07  1.1611695099736834e+07  1.1625766311163431e+07  1.1641067604722172e+07  1.1651478776400387e+07  1.1677160544502720e+07  1.1692468017484939e+07  1.1694076359029653e+07  1.1695796915205516e+07  1.1706748807351820e+07  1.1718317922679400e+07  1.1745553523860425e+07  1.1777666435386689e+07  1.1800344977416288e+07  1.1798596807408214e+07  1.1801299803769965e+07  1.1820555799688915e+07  1.1825137683651302e+07  1.1822922049468588e+07  1.1822331991765192e+07  1.1819246753556559e+07  1.1812843970469665e+07  1.1799947199321661e+07  1.1777555999631699e+07  1.1741649526640888e+07  1.1707760286832623e+07  1.1683048786551669e+07  1.1661899739477925e+07  1.1659047014325399e+07  1.1665247295215877e+07  1.1683261544470377e+07  1.1710057321559036e+07  1.1762108542245075e+07  1.1847841057498990e+07  1.1910297372767838e+07  1.2152092804891441e+07  1.2449461550989380e+07  1.3311156398865847e+07  1.3376263835580952e+07  1.3385125489316622e+07  1.3238520593103958e+07  1.3364071600958873e+07  1.1835597106253525e+07  1.3221460893932613e+07  1.3239851710057938e+07  1.2921810930425320e+07  1.2909002762346068e+07  1.2619045587462237e+07  1.2620486310493423e+07  1.3329024814024257e+07  1.2152091839912640e+07  1.2151027935334343e+07  1.3302269003493335e+07  1.3319156352086371e+07  1.1835599710561816e+07  1.3215962061703522e+07  1.3239853080514610e+07  1.3283437621256681e+07  1.3297495521959830e+07  1.3238804386257431e+07  1.3299912191284113e+07  1.3238791587451318e+07  1.1553365190191614e+07  1.2540702987441443e+07  1.2987763553801442e+07  1.1807906002937928e+07  1.1502817774523534e+07  1.1889613866660470e+07  1.2979268493106963e+07  1.2224148966849748e+07  1.2450372095615547e+07  1.1570519410368273e+07  1.1490117661038086e+07  1.3024828828630302e+07  1.1905208796841107e+07  1.3219727769209215e+07  1.2644004666706797e+07  1.1805343206036590e+07  1.1894662000442633e+07  1.2698575990631098e+07  1.1723666851842977e+07  1.3079218190327778e+07  1.2229806979976688e+07  1.2806092393474620e+07  1.1882115285962936e+07  1.1526525989870556e+07  1.1592392036601016e+07  1.1630792694063844e+07  1.2129928708535798e+07  1.1444156345685251e+07  1.3174993772455806e+07  1.1635619215079807e+07  1.3052705517317541e+07  1.2508597807427352e+07  1.2824681992537996e+07  1.1683254102949247e+07  1.2850372102417219e+07  1.2228343121554997e+07  1.2586078835907821e+07  1.2700986129412718e+07  1.2140231777791088e+07  1.1534026672300739e+07  1.2153237987994418e+07  1.3157082445840633e+07  1.2915744398387257e+07  1.3322548690861164e+07  1.2761844569847001e+07  1.2696593498777773e+07  1.1992672017711380e+07  1.1638984736042555e+07  1.1802100489467982e+07  1.2219344685696822e+07  1.3127842521523129e+07  1.2390565796658643e+07  1.1663280569231542e+07  1.1442236151012585e+07  1.3185615535895508e+07  1.1506395110503353e+07  1.1747540878745789e+07  1.2818906196856566e+07  1.2987792941080211e+07  1.2555656669889282e+07  1.1631623009257242e+07  1.3246883998721015e+07  1.1458579412524156e+07  1.2078880632226747e+07  1.2411151126126179e+07  1.2475163234598305e+07  1.2079962331834931e+07  1.1529850523495307e+07  1.1960495185055945e+07  1.1929790476503473e+07  1.1653673841937412e+07  1.1750740830359172e+07  1.1717601114394022e+07  1.1807934483751545e+07  1.3288553131468767e+07  1.3100029486856971e+07  1.1704597316451939e+07  1.3253371904153442e+07  1.3001553199124880e+07  1.2968384101612978e+07  1.3160118185479352e+07  1.2600913437828707e+07  1.2178917324764512e+07  1.2564179867231343e+07  1.2806025351904886e+07  1.1967839743994614e+07  1.3105316242241701e+07  1.1610322809011618e+07  1.2444831491691586e+07  1.1792888253155958e+07  1.1748856111151041e+07  1.2672198517802246e+07  1.3085291735002169e+07  1.2445685017887715e+07  1.2820502781590780e+07  1.2335450016400727e+07  1.2934565979544809e+07  1.1620939193740051e+07  1.1927357905646428e+07  1.1829426555284174e+07  1.3143806437372405e+07  1.2673545824105820e+07  1.1620675083234642e+07  1.3122197264237752e+07  1.2344643874382665e+07  1.3224985973551204e+07  1.1744980196402892e+07  1.3302236830325758e+07  1.3299348174890071e+07  1.2002149989382101e+07  1.2133453257052887e+07  1.3301291317580964e+07  1.3323228078951973e+07  1.3201248597250216e+07  1.3221283451215595e+07  1.2895019195358837e+07  1.1666863300154341e+07  1.3180526354085710e+07  1.2989823355852718e+07  1.2033654892860340e+07  1.2128770120968264e+07  1.2054090775056249e+07  1.3323822651405044e+07  1.3298782614511622e+07  1.2308618850640103e+07  1.3267567057485200e+07  1.3266916919393890e+07  1.3283349189513272e+07  1.3325161046990836e+07  1.2288545123732511e+07  1.1816526337624500e+07  1.2900450198725684e+07  1.1719378146881113e+07  1.2096935995096445e+07  1.1639893693918617e+07  1.2855925038114544e+07  1.3371013153273858e+07  1.2764855054840252e+07  1.2909161660213929e+07  1.3206418131129287e+07  1.2431258639340416e+07  1.1784342443028139e+07  1.2902815778718883e+07  1.1582418250342099e+07  1.1911654708922299e+07  1.3219573020908019e+07  1.3191981078319469e+07  1.2600982124425085e+07  1.3369906401533296e+07  1.1649478230557213e+07  1.3243426416950608e+07  1.2537175587426975e+07  1.1808166485377677e+07  1.1666810246255433e+07  1.1606283489413001e+07  1.2803054888399692e+07  1.3207467013776589e+07  1.3183168347815316e+07  1.2684946682641014e+07  1.3315532730607551e+07  1.2400320214152336e+07  1.1834620327580404e+07  1.1834407192367323e+07  1.1757583933385523e+07  1.3301115723310549e+07  1.3306818968353068e+07  1.3309092726082301e+07  1.2976780513149494e+07  1.3176078123072611e+07  1.3299509013063243e+07  1.3251630397682589e+07  1.2793656022130277e+07  1.3384129947475335e+07  1.3383182668729471e+07  1.2496726906272167e+07  1.1681678549943145e+07  1.2608707140753975e+07  1.3219751860895891e+07  1.2240610589828731e+07  1.2688401494490316e+07  1.3373043062955193e+07  1.2580417270098144e+07  1.2852853248549018e+07  1.1756842406546352e+07  1.2043064420275463e+07  1.2008185345992904e+07  1.2080088478135969e+07  1.3231604841118377e+07  1.2127071429413516e+07  1.2143860916004496e+07  1.2108108690295277e+07  1.2140487182980813e+07  1.2072843048681898e+07  1.1813785604665456e+07  1.1792891802550802e+07  1.2143192661583932e+07  1.1986645470363203e+07  1.2935832386321384e+07  1.2935380447843913e+07  1.3380145308760505e+07  1.2647902161917685e+07  1.2491025282404270e+07  1.2248063578592312e+07  1.2266967597913871e+07  1.2320759991769996e+07  1.2441023763482252e+07  1.2340441055837138e+07  1.2420847292623470e+07  1.2593533399247415e+07  1.2455383967603208e+07  1.2541476667857062e+07  1.2681280927779188e+07  1.2613548899987290e+07  1.2241639871442495e+07  1.2393906951496953e+07  1.1707821991390724e+07  1.1744196986615483e+07  1.1695898234639758e+07  1.1656122369013108e+07  1.1664464723168563e+07  1.1621500800721502e+07  1.1642767802080290e+07  1.1625138269496508e+07  1.1606824379388714e+07  1.1621356028578864e+07  1.1715379409812810e+07  1.1694775385785049e+07  1.1698220385938469e+07  1.1671125998784978e+07  1.1684797611752082e+07  1.1659430179375233e+07  1.1654809206261458e+07  1.1670464916918255e+07  1.1661330047972849e+07  1.1653625785534307e+07  1.1653921198567584e+07  1.1655362947089979e+07  1.1665314516054258e+07  1.1697413462741714e+07  1.1674519336957801e+07  1.1518605639841111e+07  1.1498856174429832e+07  1.1507684020046458e+07  1.1577830959770899e+07  1.2680337901469752e+07  1.2568759097487349e+07  1.2509045326393479e+07  1.2606058571581844e+07  1.2882967942941703e+07  1.3047643672754172e+07  1.2977286937362000e+07  1.3049451098276282e+07  1.1900426765877344e+07  1.1730642762210876e+07  1.1769490177336166e+07  1.1861191355258178e+07  1.1500987073532775e+07  1.1433609320516432e+07  1.1572067367363619e+07  1.1453197609721584e+07  1.1477234641166087e+07  1.1561925355124436e+07  1.2025894408429742e+07  1.2062975800924208e+07  1.1747097718007213e+07  1.1891276383833867e+07  1.1831020621953005e+07  1.3017258549885869e+07  1.2906755381594380e+07  1.2221301912344867e+07  1.2173501054399082e+07  1.2347012276334621e+07  1.2099786408208929e+07  1.2333853571078395e+07  1.2272649570356861e+07  1.2349356116419263e+07  1.2505576575631998e+07  1.2438240257751839e+07  1.1501389482774412e+07  1.1597421238444224e+07  1.1684905134784205e+07  1.1487473131736569e+07  1.1557100061495574e+07  1.1448441682642834e+07  1.1580051620948499e+07  1.1481423694505567e+07  1.1448288842636382e+07  1.1504950085913992e+07  1.1568096883175893e+07  1.2922132117324114e+07  1.3094566776173962e+07  1.2997079777298238e+07  1.3109784712385088e+07  1.3191064441663299e+07  1.2754011297769366e+07  1.2547411128631493e+07  1.2734919771272117e+07  1.2657797173539892e+07  1.1692000861954642e+07  1.1851051765150983e+07  1.1883640967491455e+07  1.1683463759807626e+07  1.2807156486258885e+07  1.2712883899467181e+07  1.2694364789794905e+07  1.2621734983685581e+07  1.1681170859595638e+07  1.1694471380519101e+07  1.2220535414856369e+07  1.2211873127545601e+07  1.2089882820932204e+07  1.2829216031227568e+07  1.2694305613828344e+07  1.2890066076960262e+07  1.2743876990719469e+07  1.1970510983562540e+07  1.1812935041567542e+07  1.1810584916779285e+07  1.1894695197820552e+07  1.1846120165488604e+07  1.1905136969086455e+07  1.1552365924334578e+07  1.1593240049924623e+07  1.1469471504993826e+07  1.1563078168245068e+07  1.1570782774324508e+07  1.1590471852190927e+07  1.1541668418327427e+07  1.1586990804458655e+07  1.1689492270354729e+07  1.1541653529784668e+07  1.1545161634433275e+07  1.1635988925605297e+07  1.1686967416409032e+07  1.1689737818095872e+07  1.1577397921117133e+07  1.1636486721303899e+07  1.2058406154198550e+07  1.2269405030585304e+07  1.2106352624752862e+07  1.2028093201568194e+07  1.1435477141944930e+07  1.1473056569169994e+07  1.1428168319001013e+07  1.1473828233023267e+07  1.1577038576601593e+07  1.1696685793854615e+07  1.1544070729990013e+07  1.1628349800405821e+07  1.1653087923902424e+07  1.1682539729686126e+07  1.1618285970775096e+07  1.2474522587934868e+07  1.2415617607337665e+07  1.2591967824241584e+07  1.2579184244564530e+07  1.2821904669941923e+07  1.1602293823778415e+07  1.1669311472986653e+07  1.2764330691870296e+07  1.2356310080676259e+07  1.2077626446122257e+07  1.2078756228510939e+07  1.2286895833805898e+07  1.2668434943948841e+07  1.2569092302126443e+07  1.2649475857793827e+07  1.2647465391791014e+07  1.2172081346749183e+07  1.1978922453487379e+07  1.1491760086826662e+07  1.1559045822210209e+07  1.1570757441904040e+07  1.2065482212727843e+07  1.2242002991584698e+07  1.3070721426655892e+07  1.3132078179042865e+07  1.2836578731472265e+07  1.3014267859329745e+07  1.2853030405274192e+07  1.2873876192497689e+07  1.2644071761763090e+07  1.2622253973573325e+07  1.1964605048411053e+07  1.1617600313260444e+07  1.2075664676667340e+07  1.2267733904589640e+07  1.1642705318887748e+07  1.1641608961582240e+07  1.1673768877450567e+07  1.1472199385086827e+07  1.1588877021020634e+07  1.1763522804616842e+07  1.1690343337297212e+07  1.1595268932183109e+07  1.1967880374618322e+07  1.2352006243690075e+07  1.2421947272818647e+07  1.2451627822789971e+07  1.2499881966224007e+07  1.2459672366745677e+07  1.2407797042665901e+07  1.2004276846181646e+07  1.1615623784814948e+07  1.1700914960931286e+07  1.1737951077325338e+07  1.1746524313707648e+07  1.1695986242185200e+07  1.1756626786452925e+07  1.1814752077091705e+07  1.1656535750537027e+07  1.3040447296920732e+07  1.1771761155390313e+07  1.1823216911799239e+07  1.2376637412649965e+07  1.2561116928079434e+07  1.2749967879336106e+07  1.2659525156756828e+07  1.1628458882751018e+07  1.1713003990606060e+07  1.1636159678564640e+07  1.2357126366244627e+07  1.1655003635072840e+07  1.2512433395467188e+07  1.1600366542428548e+07  1.1589322776185496e+07  1.2535404813424995e+07  1.1535084942512752e+07  1.2644897422351005e+07  1.1500040355508348e+07  1.1459633391464153e+07  1.1537442043813029e+07  1.1489861747603834e+07  1.1567071169077311e+07  1.2299584859899685e+07  1.1522098084623771e+07  1.1530742802953715e+07  1.1526692357778432e+07  1.3047820303738454e+07  1.2028191881374110e+07  1.1743857567318028e+07  1.1738966294704150e+07  1.1778090014115801e+07  1.1678956713241858e+07  1.2744515323919753e+07  1.2775940347339924e+07  1.1498102032788590e+07  1.1530293667669576e+07  1.1541129771116888e+07  1.1553700829996221e+07  1.1581624141706983e+07  1.2044665717489040e+07  1.2223080074266190e+07  1.2293755041857647e+07  1.2151309104730086e+07  1.2321144925037604e+07  1.1529337561444819e+07  1.1552054037398426e+07  1.1546489093206877e+07  1.1552218974088205e+07  1.2700654728969797e+07  1.1441104441762155e+07  1.1436698904188577e+07  1.1451884859078284e+07  1.1683531377452895e+07  1.1654328705050599e+07  1.1690787407467335e+07  1.1650063409123439e+07  1.1447410134363079e+07  1.1497264110286426e+07  1.1473706354994074e+07  1.1746097100941116e+07  1.2945310900196629e+07  1.2982829608691666e+07  1.3021463002589339e+07  1.2589012617433162e+07  1.2598430647679677e+07  1.1682392062189475e+07  1.1756852722055897e+07  1.1723680149472512e+07  1.1783521534278354e+07  1.2503469506020300e+07  1.2302534310968563e+07  1.2352060559900146e+07  1.1561032956747442e+07  1.1591920773196205e+07  1.1624589167399444e+07  1.1908199882733164e+07  1.1976625190616708e+07  1.1944645386717422e+07  1.1871048403218890e+07  1.2618021332277743e+07  1.1654066500530431e+07  1.1637407013796350e+07  1.1645527212266121e+07  1.2487073402795540e+07  1.2467584194756895e+07  1.2473423564919412e+07  1.1612073620076369e+07  1.1642208191415317e+07  1.1671252338542942e+07  1.1592510581590282e+07  1.1675569615718683e+07  1.1662666474531956e+07  1.2561625735110428e+07  1.2630782735942334e+07  1.2594862931480423e+07  1.2541406202537147e+07  1.2548073384739490e+07  1.2557111182846839e+07  1.2526396137297846e+07  1.1694808146943500e+07  1.1663458631796964e+07  1.1527920311802132e+07  1.2712195760640638e+07  1.1811943588058233e+07  1.1794879689550025e+07  1.1529900807072861e+07  1.1450525091493085e+07  1.1456844506217897e+07  1.1433158240833741e+07  1.1442612709938686e+07  1.1509101533656674e+07  1.1782113878476545e+07  1.1712003970809124e+07  1.1758578166098431e+07  1.2288436344538931e+07  1.2323628585008185e+07  1.1522487088609150e+07  1.1564390289532309e+07  1.1508287380452815e+07  1.1543860646638872e+07  1.1573603236741794e+07  1.1511177809609860e+07  1.1433930810591318e+07  1.1462686049674656e+07  1.1617702166968632e+07  1.3034744828585237e+07  1.1721786876093235e+07  1.1801759432645380e+07  1.1724328540420292e+07  1.2660903231181815e+07  1.2675960738066051e+07  1.2626725354392236e+07  1.1848951803807795e+07  1.1946361492322611e+07  1.1856882272199590e+07  1.1665089901211163e+07  1.1994684250489548e+07  1.2014898578163704e+07  1.1532736416565107e+07  1.1572562629933890e+07  1.2533541277072225e+07  1.2517910381156186e+07  1.2576093401438115e+07  1.1563497493856221e+07  1.1648745840261038e+07  </DataArray> 
</PointData> 
</Piece>
</UnstructuredGrid>
</VTKFile>