<?xml version="1.0"?>
<VTKFile type="UnstructuredGrid"  version="0.1"  >
<UnstructuredGrid>
<Piece  NumberOfPoints="784" NumberOfCells="1320">
<Points>
<DataArray  type="Float64"  NumberOfComponents="3"  format="ascii">266913.131276 586512.314988 0  266738.13716 587762.325998 0  266363.132677 589012.328643 0  266175.641078 590169.601714 0  265666.575631 591040.7699119999 0  264875.64001 591687.766419 0  264900.636161 591845.049083 0  266088.14152 592012.3229499999 0  265561.959259 592661.17101 0  264288.136855 593037.368683 0  263865.194033 593999.8486949999 0  263850.641856 593236.729596 0  263625.634872 592756.525286 0  262689.574249 593299.848918 0  262475.636737 594003.0907310001 0  261934.554452 594340.929792 0  261725.631329 594932.094409 0  261729.256443 595728.498809 0  262138.136044 595012.330523 0  262288.141035 596262.333669 0  261488.994028 597511.480605 0  261234.15567 598316.338928 0  260815.635063 599014.863821 0  261400.643658 599389.7367680001 0  261322.963374 600022.185065 0  261119.455248 600931.061306 0  261607.436504 601293.0629359999 0  260807.446929 602089.899812 0  260025.642878 602988.868697 0  259613.135827 603937.3854499999 0  259050.643123 604100.987861 0  258411.880065 603988.6335979999 0  257764.357469 604449.872569 0  257971.239668 605320.429125 0  258041.396867 605740.635381 0  257188.143339 606987.394312 0  256038.141198 608112.3554550001 0  254788.141633 609087.4026939999 0  253588.140656 609812.362881 0  252338.135706 609737.4048949999 0  251088.138116 609787.404055 0  249963.12851 610287.399466 0  248613.130524 610462.365857 0  247363.132198 610687.407659 0  246113.130532 610837.411551 0  245832.347438 610918.209918 0  245016.946433 610958.5639439999 0  244313.129646 610762.372259 0  244400.622144 611378.093316 0  243939.669208 612460.8930899999 0  242960.649733 611984.892792 0  242170.381438 611919.647351 0  241888.122919 611112.375656 0  241393.380757 610467.6456149999 0  240594.157528 611306.369822 0  240525.621947 610804.648112 0  240363.123632 610512.3745050001 0  239113.123247 610262.374278 0  239813.12126 609037.412459 0  240588.122952 607812.368199 0  241013.119545 606625.9534560001 0  241454.373249 605724.888025 0  242238.120107 604687.3993 0  243088.121248 603462.362766 0  242860.319451 603007.3932640001 0  241563.116617 603812.361344 0  241778.400913 604327.642217 0  242059.837234 604824.879102 0  241475.620201 604923.2402390001 0  241462.182234 605449.881372 0  240906.219606 605674.888222 0  240241.856192 606891.125066 0  239891.734044 607841.012479 0  239048.653431 608724.889805 0  238118.054545 608974.895967 0  238888.111029 607337.406468 0  239738.119992 606212.362729 0  240288.12044 605687.4075229999 0  240380.212307 604729.521696 0  239347.309632 604603.204501 0  238888.112036 604387.408787 0  237913.11173 604687.401386 0  236784.172023 604499.882783 0  236883.408793 603717.08334 0  236154.933927 603595.565605 0  235688.103943 602912.369264 0  235763.108033 601662.366516 0  236363.110805 600412.35884 0  236738.107995 599162.356577 0  236525.607944 598482.2412899999 0  236138.109208 599362.357613 0  235725.063048 600325.4466510001 0  235091.948926 601408.5220979999 0  235188.10921 600312.366344 0  234375.602405 600833.9674270001 0  234663.109308 599912.358011 0  234138.105122 600062.365644 0  233955.307245 599029.561063 0  233338.103791 598387.401556 0  233988.09795 597862.356384 0  235138.101489 596637.3947750001 0  235563.1039 595387.392428 0  236513.103639 594212.356312 0  237163.10684 592987.3929869999 0  238313.103031 591862.3515540001 0  239513.107028 590812.3512640001 0  240638.102135 589787.387271 0  241463.109549 588587.378486 0  242294.489816 587443.735215 0  242913.101099 586512.341804 0  243544.066915 585474.859604 0  243040.448415 585184.975583 0  242438.10214 585337.38015 0  241313.102353 586562.339499 0  240538.107104 587787.382449 0  240114.641085 588588.939407 0  239388.100256 589437.382238 0  238188.104456 590512.346358 0  236938.100507 591362.349798 0  235813.10453 592537.396388 0  234864.502938 593178.7753880001 0  234463.097651 592862.357267 0  235113.0965 591662.3545979999 0  235713.101522 590412.346099 0  235777.688431 589976.7582779999 0  234943.583145 590706.265132 0  234462.482256 591490.2841159999 0  233801.497784 592112.940187 0  233388.099101 591787.394208 0  234013.093099 590437.393065 0  234776.217248 587148.7548100001 0  235163.093726 586562.3486189999 0  235313.098918 585483.229012 0  235250.59732 584662.298153 0  235588.093896 583337.379493 0  236329.432041 582199.858992 0  237188.096234 581462.3349939999 0  237463.088521 580212.335511 0  238350.592558 579057.652616 0  238591.415797 578574.847681 0  238313.094106 577612.328905 0  239229.696732 577695.769664 0  240195.161018 577513.008613 0  240614.996733 577149.8518770001 0  240663.091715 577412.332622 0  240288.092486 578662.334085 0  239942.357258 579508.095811 0  240438.100019 580212.3334220001 0  241338.095553 580387.375355 0  241238.099828 579137.369157 0  241788.097003 577887.370889 0  241983.554649 577241.9220939999 0  242054.178239 576927.8105029999 0  242588.100699 575737.366175 0  243149.324833 574898.583978 0  243695.278626 573919.517981 0  244268.494418 573724.8454239999 0  244995.134063 573930.2767810001 0  245417.314363 573391.601898 0  243450.599125 571859.479773 0  245776.797908 572599.8353060001 0  246779.639852 572973.285167 0  248034.741935 573186.082054 0  249413.10651 573162.3205520001 0  250496.922226 573271.1521899999 0  251613.105126 573237.3551319999 0  252421.824577 572846.032906 0  253256.245022 572580.4733130001 0  253739.471933 571960.9547369999 0  254174.511864 572149.8346569999 0  254484.944333 571684.194807 0  254384.108649 570891.346712 0  254344.002752 570218.26407 0  255025.609604 570829.0294979999 0  255715.005913 570489.264586 0  256218.846343 570774.828355 0  256834.349083 570508.5908 0  257390.092515 570014.308325 0  257624.431042 568493.478911 0  259355.811717 569380.021819 0  260033.372814 569617.066669 0  262679.741751 570320.699974 0  263289.115756 569524.817815 0  263463.114338 570512.301061 0  264638.198419 570687.3443539999 0  265058.220065 571334.378467 0  265447.561421 572077.90485 0  265488.125257 573137.3446020001 0  265131.937715 573963.293593 0  265432.389648 575093.068786 0  265638.122314 576338.029955 0  265750.630817 577371.8281319999 0  265738.570663 578561.9098850001 0  265875.630866 579139.630549 0  266213.129247 579862.311842 0  266563.130472 581112.314509 0  266238.135356 582362.310259 0  265938.12863 583612.320897 0  265738.131342 584762.3210189999 0  266875.638633 585365.358768 0  264018.7239399826 593650.4646671159 0  262236.3944351029 595831.1252656333 0  241846.246678 605206.1436625 0  240200.622106 608424.8903290001 0  240943.4862974102 610939.7757535663 0  236550.6094 599787.3577085 0  238528.1212051503 608102.9081793013 0  244413.4891967989 572609.5960859474 0  236382.0474488751 598808.3067022427 0  235369.601910944 600933.5380148316 0  235413.099011 591037.3503485 0  235446.2251831186 590266.6553871984 0  240475.5921005 578037.3333535 0  240413.173949154 577324.4280286073 0  240574.037899 606283.0066440001 0  263857.9179445 593618.2891454998 0  264153.4303974913 593343.916675058 0  242042.1833925 604946.7714812499 0  241650.3099635 605465.51584375 0  244613.6985165 572229.6575395 0  236631.8579695 598822.2989335 0  235140.029068 600860.444221 0  241767.7287175 604874.0596705 0  242140.15174975 604817.0853906251 0  234781.8558075 600573.1668855001 0  242091.167571125 604881.9284359375 0  234519.3558565 600373.162719 0  254604.8337712102 583989.0014118921 0  250699.5846056537 594617.3297041012 0  250540.4796469513 602258.2940568649 0  248483.7490186612 580334.7345534252 0  258549.2190328319 577893.951823392 0  257067.0067473103 590016.5327808241 0  243285.0921999099 596333.923437875 0  248333.1386145258 589098.0389905117 0  256142.8445072741 595883.3911551933 0  260245.1368072523 583315.2785712298 0  253472.3380211276 578932.2908163272 0  246432.3347504817 599884.5019511909 0  261555.9240922556 588041.186709004 0  247293.1100123104 605823.8307887657 0  246458.2798550911 593168.8646574575 0  252840.0183145193 588226.5564648228 0  249828.2874404451 584740.7888937403 0  255409.5660975206 600458.8956828594 0  260819.9733392385 574219.403683011 0  252584.2262054711 605722.6603825617 0  254049.8830611471 592547.4852571967 0  250015.4356193061 598425.2225922942 0  245872.072249477 577604.9761853142 0  262002.1583249522 579753.4663046852 0  257732.6630933878 586227.970805314 0  250242.5556457866 577017.3316409125 0  244921.6453001869 581816.6358421432 0  256520.3890639471 580904.824006648 0  240779.0970645865 599524.6679555867 0  257100.1829219198 574459.5922545703 0  239912.2630002034 595231.1172704464 0  244703.0875078634 590068.6945953515 0  242549.5490268674 592874.3693043783 0  251586.0465921376 581796.2215047925 0  246643.189997516 596527.447801719 0  251049.7658069622 591057.6752245198 0  253014.5731561695 596998.6601086652 0  238680.2197353724 584542.2309791476 0  259715.365803504 591937.1938619445 0  254097.157218761 575731.4494927844 0  246806.6408589328 586139.0877599345 0  246136.1179750556 602959.471719323 0  253520.7033332401 602835.180253843 0  244125.4295793909 607538.9817227355 0  252546.8895354472 599881.3279113505 0  258289.0983523553 600397.640191779 0  247518.7952199645 583037.3718217331 0  263140.3959879661 582529.2228421422 0  262894.8586894067 585442.3590432997 0  256968.6320599076 593040.7691844478 0  243573.0187527719 600218.2795730785 0  258888.5766127351 595139.7745218446 0  262588.7569809347 576734.8569237856 0  259318.4257992262 580601.2540325444 0  249963.3812725965 607065.7205847671 0  257494.5307999607 583482.5893534871 0  258906.4757205145 572278.8089438241 0  237751.446593475 587300.5805003279 0  255142.4708720699 604956.7580261135 0  258485.4978753244 597756.9250383095 0  255516.7820591553 587791.39641967 0  239758.4692108706 601926.8203218657 0  255873.0092222999 577739.5085867504
[...]
<PointData  Scalars="f_32-0"> 
<DataArray  type="Float64"  Name="f_32-0"  format="ascii">2.1594292291007627e+07  2.1648998463763289e+07  2.1716454187059660e+07  2.1773035111169968e+07  2.1813050411359522e+07  2.1873043131601106e+07  2.1892331396373469e+07  2.1905914989268404e+07  2.1906428804601420e+07  2.1922485030469600e+07  2.1928669314526930e+07  2.1928003853735417e+07  2.1943252116627529e+07  2.2061860253172863e+07  2.2144856309440527e+07  2.2225034718003754e+07  2.2341011595530760e+07  2.2478527417717393e+07  2.2495612940269988e+07  2.2517524189470038e+07  2.2635857950446643e+07  2.2733151555103961e+07  2.2848507595638141e+07  2.2912490911693830e+07  2.2943690570491161e+07  2.3012160081421260e+07  2.3032152579295121e+07  2.3068519199791297e+07  2.3143379766393658e+07  2.3196170373906732e+07  2.3213005946731765e+07  2.3260953851923924e+07  2.3381104440069657e+07  2.3479044535020351e+07  2.3496905729688831e+07  2.3575288588024154e+07  2.3662655483938325e+07  2.3740432241361078e+07  2.3791313052677184e+07  2.3835765741477534e+07  2.3901052421736129e+07  2.3963918308686607e+07  2.4023163360057186e+07  2.4078445754406866e+07  2.4129120261341173e+07  2.4139771219812401e+07  2.4166711602847103e+07  2.4199367587419182e+07  2.4222721931109428e+07  2.4232928731196877e+07  2.4235371829358961e+07  2.4237658740057740e+07  2.4237669063744057e+07  2.4242214071650494e+07  2.4250947166638512e+07  2.4250315510469675e+07  2.4250452055623114e+07  2.4253702641777813e+07  2.4244857889462084e+07  2.4212667585170459e+07  2.4170016213741645e+07  2.4130113590060294e+07  2.4058494128731675e+07  2.3929936939556282e+07  2.3896969098636288e+07  2.3989175364403650e+07  2.4022958830162395e+07  2.4032200440985180e+07  2.4041838104010012e+07  2.4057202226694569e+07  2.4079206235702883e+07  2.4159579059517484e+07  2.4185618177655991e+07  2.4197822515647713e+07  2.4200275699601240e+07  2.4187074988562893e+07  2.4147687072107174e+07  2.4101443792826522e+07  2.4037012864861626e+07  2.4020128461658981e+07  2.4021094879639514e+07  2.4025619111255050e+07  2.4026867993784182e+07  2.4023347897248890e+07  2.4021082063509114e+07  2.4017815049425393e+07  2.4004381196572877e+07  2.3968790740830071e+07  2.3912267428397652e+07  2.3892562001944907e+07  2.3923103307017963e+07  2.3938032015256930e+07  2.3942975018711824e+07  2.3938941969531521e+07  2.3940740082087994e+07  2.3936504840666573e+07  2.3935643005038641e+07  2.3929671158857029e+07  2.3926727373270731e+07  2.3919670658414923e+07  2.3860918520096675e+07  2.3793242732693005e+07  2.3695025512546130e+07  2.3587414662626728e+07  2.3441199822828807e+07  2.3244034321851298e+07  2.3006913284762312e+07  2.2768826551336415e+07  2.2558495253426868e+07  2.2393292013408035e+07  2.2201420798844084e+07  2.2151581558290962e+07  2.2183053786243960e+07  2.2294944115160942e+07  2.2371136886457112e+07  2.2405115705894209e+07  2.2437823282052394e+07  2.2477767706023805e+07  2.2508309867439024e+07  2.2530945027557116e+07  2.2536119523303647e+07  2.2536171182109322e+07  2.2528227066797834e+07  2.2507279399750471e+07  2.2499738483343076e+07  2.2514578002305731e+07  2.2524429535129555e+07  2.2527599636091899e+07  2.2527606694047265e+07  2.2517350921169735e+07  2.2452634600646082e+07  2.2431112413732059e+07  2.2392388508045368e+07  2.2368467265368242e+07  2.2334408177819006e+07  2.2297303312004477e+07  2.2254638774766564e+07  2.2218680905755647e+07  2.2201189534506302e+07  2.2200400923356570e+07  2.2201456868003670e+07  2.2200899933359779e+07  2.2201118962838423e+07  2.2201452669775043e+07  2.2201410156817127e+07  2.2197990063315846e+07  2.2183461359076701e+07  2.2127952009129405e+07  2.1977876555843204e+07  2.1825222075479530e+07  2.1723502705841042e+07  2.1674918758149385e+07  2.1656306538898833e+07  2.1590411604241196e+07  2.1546912441627190e+07  2.1513858035619389e+07  2.1504143809946306e+07  2.1474688536458418e+07  2.1437635534879167e+07  2.1422813334485654e+07  2.1426132591315154e+07  2.1409783347903155e+07  2.1362220840404674e+07  2.1299628460674189e+07  2.1248040359858163e+07  2.1187034500035848e+07  2.1143475737780847e+07  2.1107725940112866e+07  2.1087932651011501e+07  2.1078414123277269e+07  2.1059945300408714e+07  2.1050440214370467e+07  2.1049322822500605e+07  2.1049289850452594e+07  2.1045518315625172e+07  2.1042735338664722e+07  2.1037425523244791e+07  2.1033045027241241e+07  2.1031605941748615e+07  2.1032691487526979e+07  2.1035066087566897e+07  2.1047745649386290e+07  2.1048762829394560e+07  2.1050400555810340e+07  2.1053322649040874e+07  2.1054456276779365e+07  2.1056529577794131e+07  2.1060445730251364e+07  2.1067834842273418e+07  2.1083210536631044e+07  2.1103499633735541e+07  2.1125165100544933e+07  2.1160664386234105e+07  2.1184759421617974e+07  2.1213983924141742e+07  2.1254618504376631e+07  2.1303867969233889e+07  2.1379569045290489e+07  2.1486255682854190e+07  2.1557392287183747e+07  2.1928404093607608e+07  2.2502291491841394e+07  2.4098836232464723e+07  2.4232339057220992e+07  2.4249894263542723e+07  2.3942339414725259e+07  2.4196788558097754e+07  2.1424426147211097e+07  2.3906957673905514e+07  2.3941988631577268e+07  2.2519260866041113e+07  2.2504959879191257e+07  2.2200641994718529e+07  2.2201381089921802e+07  2.4126220096709482e+07  2.1928394089781456e+07  2.1927574024039131e+07  2.4079790759683151e+07  2.4115815187059708e+07  2.1424428755544163e+07  2.3897268880662426e+07  2.3941991189266160e+07  2.4033666779472597e+07  2.4069483893200353e+07  2.3939989059143972e+07  2.4074708794100128e+07  2.3939964434266809e+07  2.1375982492631149e+07  2.2554372043415695e+07  2.3424735849192966e+07  2.1533209837698475e+07  2.1106310010657702e+07  2.1811404713225510e+07  2.3409113195107862e+07  2.2184156822079435e+07  2.2546184148351677e+07  2.1312320587602701e+07  2.1220506127953295e+07  2.3394937444419228e+07  2.1659475615977686e+07  2.3913877036385868e+07  2.2739184982763201e+07  2.1744757521022864e+07  2.1733553930464245e+07  2.3081039024866551e+07  2.1056283764636334e+07  2.3676303472335700e+07  2.2191793519321553e+07  2.2951085724127930e+07  2.1535376510537978e+07  2.1165591961306378e+07  2.1447736959823489e+07  2.1311438256918933e+07  2.1844348110544913e+07  2.1211360870834738e+07  2.3811662466598324e+07  2.1061876907759398e+07  2.3579375616763428e+07  2.2573452334638540e+07  2.3130287093278725e+07  2.1438440250922229e+07  2.3095351625473607e+07  2.2151051300690707e+07  2.2717323794436574e+07  2.2304591866732344e+07  2.2022407789936572e+07  2.1128464209722441e+07  2.2073396549157321e+07  2.3731909461359881e+07  2.3392352032709725e+07  2.4126026840983845e+07  2.3080013506434165e+07  2.3009998555348333e+07  2.1774843116020959e+07  2.1303260531032357e+07  2.1485417775277916e+07  2.2177583698956002e+07  2.3691902837908316e+07  2.2419205364827015e+07  2.1097175871409453e+07  2.1183797515939265e+07  2.3867846477387365e+07  2.1297041690812368e+07  2.1039529188835721e+07  2.2415593390870906e+07  2.3522070844889853e+07  2.2734257233660758e+07  2.1583267152545657e+07  2.3958665613842569e+07  2.1125654664957911e+07  2.1871475211613782e+07  2.2076622110952716e+07  2.2478748915382572e+07  2.1733286699239746e+07  2.1300160010080937e+07  2.1653396973887149e+07  2.1872443901545342e+07  2.1367075644611601e+07  2.1396010352159426e+07  2.1471341353368506e+07  2.1658969842351876e+07  2.4063162342719961e+07  2.3685860160610307e+07  2.1524499772003908e+07  2.3974614854307510e+07  2.3416296635361299e+07  2.3264194824993432e+07  2.3787074671480145e+07  2.2207652999177720e+07  2.1995984902901199e+07  2.2814694857767813e+07  2.3217011140711773e+07  2.1877590756187741e+07  2.3634531473627090e+07  2.1514919144551806e+07  2.2469690933308475e+07  2.1052600754913528e+07  2.1438321117728278e+07  2.2763593219557747e+07  2.3633541039031781e+07  2.2441480642591931e+07  2.3088815227985729e+07  2.2350845329982530e+07  2.3361002484730698e+07  2.1081170724136941e+07  2.1627926978817906e+07  2.1591213798918728e+07  2.3757877614724021e+07  2.2806490735316973e+07  2.1212735792770375e+07  2.3760782199759193e+07  2.2313642394112006e+07  2.3915170477917571e+07  2.1070277586230103e+07  2.4080884996489063e+07  2.4073776349383563e+07  2.1629837969543237e+07  2.1904841721806288e+07  2.4077753055286471e+07  2.4131436480358675e+07  2.3868371388607655e+07  2.3906460299637038e+07  2.2490132523107525e+07  2.1059176707288187e+07  2.3797712639935087e+07  2.3525512666112278e+07  2.1653780800490197e+07  2.1891030328166358e+07  2.1786984583894402e+07  2.4125872092305835e+07  2.4072287037025023e+07  2.2265086388440967e+07  2.4000925444446791e+07  2.4002256646709498e+07  2.4038737939285383e+07  2.4135899557519980e+07  2.2061255709755886e+07  2.1431530928676885e+07  2.2496802124551691e+07  2.1042603158268873e+07  2.1847959240380712e+07  2.1172157296433043e+07  2.2450233080691200e+07  2.4222210366455697e+07  2.2358816231102791e+07  2.2504988110163793e+07  2.3878572793354601e+07  2.2126875040228553e+07  2.1034756702616964e+07  2.2498392525752850e+07  2.1155602932026632e+07  2.1516518604690656e+07  2.3903274840037610e+07  2.3850397912956905e+07  2.2196837785883807e+07  2.4220700513207231e+07  2.1294763699538257e+07  2.3952162280449234e+07  2.2678509855832290e+07  2.1055929028682221e+07  2.1063828194102943e+07  2.1093631192715209e+07  2.3187264346557010e+07  2.3865994042691644e+07  2.3815138422248550e+07  2.2964588594174668e+07  2.4108222191353407e+07  2.2420775377235543e+07  2.1426810573161781e+07  2.1426367347445905e+07  2.1035911439667195e+07  2.4077311354130529e+07  2.4089564824204188e+07  2.4094461971811444e+07  2.3502072942227360e+07  2.3819384353303101e+07  2.4086811904248189e+07  2.3995448384298537e+07  2.2394806707628470e+07  2.4247956608429503e+07  2.4246001387235995e+07  2.2117621119480457e+07  2.1112008672473360e+07  2.2195902033093709e+07  2.3893203818899084e+07  2.2129934985220347e+07  2.2284386725395851e+07  2.4227168727895770e+07  2.2210298996485833e+07  2.3285461643176276e+07  2.1398481151410412e+07  2.1661487721433695e+07  2.1621499647768416e+07  2.1704295994049501e+07  2.3926205431138977e+07  2.1886078302080672e+07  2.1909995174999166e+07  2.1858418368623726e+07  2.1906725589336473e+07  2.1798837235048611e+07  2.1049857301949900e+07  2.1042034177159946e+07  2.1949201658634651e+07  2.1600276510196161e+07  2.2534534204736132e+07  2.2534035310676925e+07  2.4240189743949022e+07  2.2838841823349442e+07  2.2590298015363052e+07  2.2159158913852610e+07  2.2102989965169825e+07  2.2123388810731973e+07  2.2161871440517616e+07  2.2119665201413386e+07  2.2142022931410510e+07  2.2241518417192284e+07  2.2157302772166699e+07  2.2197605885147270e+07  2.2298107603651419e+07  2.2249389234129224e+07  2.1904837433241125e+07  2.2035228072538275e+07  2.1330007553853545e+07  2.1371204032473963e+07  2.1325281181739066e+07  2.1275261243984945e+07  2.1293360157257438e+07  2.1218554801660247e+07  2.1268146393007446e+07  2.1241498117841806e+07  2.1132648364771601e+07  2.1100446645799316e+07  2.1095995563179277e+07  2.1113756173777219e+07  2.1107919877706870e+07  2.1140493212045230e+07  2.1119233868948691e+07  2.1172576597243406e+07  2.1167422611239396e+07  2.1133951313160021e+07  2.1200424936027277e+07  2.1177872527808029e+07  2.1212747666484669e+07  2.1192205724219851e+07  2.1238065161558937e+07  2.1313795445026308e+07  2.1263344805196144e+07  2.1371915102473956e+07  2.1286347798393440e+07  2.1319092913606949e+07  2.1438682080048367e+07  2.2724655341175713e+07  2.2610111156351436e+07  2.2520335764864113e+07  2.2645906906711906e+07  2.3251786425481964e+07  2.3565611874553833e+07  2.3340705313756343e+07  2.3524849965486955e+07  2.1647732414064232e+07  2.1448949289446797e+07  2.1478689535969056e+07  2.1578831923339047e+07  2.1129655729276106e+07  2.1150356830858145e+07  2.1077818490494747e+07  2.1140069032031689e+07  2.1111098136694398e+07  2.1091537329851754e+07  2.1918422850295488e+07  2.1988405184689008e+07  2.1691925276110739e+07  2.1831160296101656e+07  2.1726855805084996e+07  2.3500684043264128e+07  2.3276475039114561e+07  2.2151103906839505e+07  2.2133281183512833e+07  2.2309629965819106e+07  2.2031764708725844e+07  2.2311972762472078e+07  2.2266364806845289e+07  2.2363537899165712e+07  2.2635792006967310e+07  2.2500776299303606e+07  2.1228511928553954e+07  2.1307275334490176e+07  2.1394222933401562e+07  2.1240190237436160e+07  2.1260064328355789e+07  2.1206740148971632e+07  2.1317755456672501e+07  2.1166117431326956e+07  2.1165000901363682e+07  2.1257307460316304e+07  2.1287871728599668e+07  2.3154588915720437e+07  2.3558327741813019e+07  2.3308111162218511e+07  2.3611589714714848e+07  2.3832666643186193e+07  2.2935973804779034e+07  2.2578349344208229e+07  2.2911243239379119e+07  2.2763177706612017e+07  2.1647470729241122e+07  2.1797080631199677e+07  2.1801955648980755e+07  2.1617747256269973e+07  2.3236973566959158e+07  2.3082540109634943e+07  2.3044006321054813e+07  2.2949513508307777e+07  2.1053976501792576e+07  2.1072857657035407e+07  2.2162618887755081e+07  2.2175410732445341e+07  2.2031401772603165e+07  2.2989391631144948e+07  2.2814177202223416e+07  2.3112125793859169e+07  2.2826737459565498e+07  2.1625682931909587e+07  2.1461460328546707e+07  2.1484467840949539e+07  2.1572790814218786e+07  2.1477002185520563e+07  2.1526794534463789e+07  2.1224911333395671e+07  2.1126928873354394e+07  2.1171122860909514e+07  2.1116105653010253e+07  2.1187826498482235e+07  2.1169125195110597e+07  2.1359578027858920e+07  2.1500247124325119e+07  2.1549506400861431e+07  2.1441978203251868e+07  2.1207215063715454e+07  2.1334646042297754e+07  2.1353354909560837e+07  2.1374870277602699e+07  2.1225736691377815e+07  2.1300117993599031e+07  2.1810757687305015e+07  2.1964880258326691e+07  2.1786474278229102e+07  2.1733791623855878e+07  2.1192528656736970e+07  2.1251597674912412e+07  2.1162825594805483e+07  2.1247434837466966e+07  2.1086716183930129e+07  2.1047763891231172e+07  2.1087606492328759e+07  2.1065801075364009e+07  2.1059779866891876e+07  2.1050932848827627e+07  2.1073197460911047e+07  2.2494224067471407e+07  2.2464240240599796e+07  2.2678334064276729e+07  2.2705207091710299e+07  2.3106000986009184e+07  2.1363001192692369e+07  2.1400362922733709e+07  2.2925600101802405e+07  2.2310951980197255e+07  2.2005312088790599e+07  2.1994149531765617e+07  2.2230348459176809e+07  2.2891140434602201e+07  2.2767915703484461e+07  2.2255614953494109e+07  2.2261499769569460e+07  2.2095696655055434e+07  2.1835121245757461e+07  2.1122850845827609e+07  2.1140151477854230e+07  2.1110186439805485e+07  2.1982682688800264e+07  2.2209149920603015e+07  2.3494275544632476e+07  2.3675671229051299e+07  2.3247221844373778e+07  2.3539853381361641e+07  2.3305289275482811e+07  2.3162229770317961e+07  2.2941823006522268e+07  2.2921011215140257e+07  2.1700268157385364e+07  2.1253729110224959e+07  2.2015107559814829e+07  2.2225160805370007e+07  2.1088174710769117e+07  2.1129679859791130e+07  2.1104716761039570e+07  2.1240011905936260e+07  2.1368379320125010e+07  2.1719501112298965e+07  2.1607548567127664e+07  2.1532073455566619e+07  2.1778738683325052e+07  2.2062311519865692e+07  2.2101693522881463e+07  2.2091390568925738e+07  2.2147627067790247e+07  2.2457442661523256e+07  2.2383277332559224e+07  2.1680812952821359e+07  2.1402568823845677e+07  2.1404415603738021e+07  2.1470392128674414e+07  2.1413199916863810e+07  2.1345159952104099e+07  2.1557202298416071e+07  2.1685116892722890e+07  2.1515929563489012e+07  2.3449986935674597e+07  2.1678748842079975e+07  2.1521738889861699e+07  2.2392756979209587e+07  2.2602498156682491e+07  2.2949608630859904e+07  2.2820485439970255e+07  2.1191496077914622e+07  2.1087937369429443e+07  2.1074143156075098e+07  2.2093489848957237e+07  2.1138816874874488e+07  2.2168358436235216e+07  2.1221796283125833e+07  2.1121068334912799e+07  2.2162300338945203e+07  2.1395878504968341e+07  2.2681392708442625e+07  2.1116508888635926e+07  2.1126058180485874e+07  2.1090157713783421e+07  2.1107691261739131e+07  2.1083003267594058e+07  2.2286940281502455e+07  2.1237843654443223e+07  2.1265797742003296e+07  2.1252187251945175e+07  2.3431005226253133e+07  2.1947276565230764e+07  2.1692571914988749e+07  2.1678768838437796e+07  2.1705005577825811e+07  2.1059232824822832e+07  2.2829806595897969e+07  2.2876444207793131e+07  2.1193474724692088e+07  2.1192638930276688e+07  2.1400082720963206e+07  2.1436483003797635e+07  2.1257295834374297e+07  2.1771672341636125e+07  2.2144506479401626e+07  2.2229358398267154e+07  2.2065327987532921e+07  2.2266778850612585e+07  2.1163958599303566e+07  2.1105287063230552e+07  2.1133808534489404e+07  2.1119096806579281e+07  2.3009014026540045e+07  2.1160597884437941e+07  2.1187260885088105e+07  2.1211193675686173e+07  2.1635224170579605e+07  2.1610946408804830e+07  2.1648620920282405e+07  2.1589604198195964e+07  2.1143642627971362e+07  2.1104702948507611e+07  2.1123089572779268e+07  2.1632151645497646e+07  2.3202540013624206e+07  2.3279555541214399e+07  2.3373932264324982e+07  2.2206368702806212e+07  2.2877193799748078e+07  2.1590432464698166e+07  2.1456732615074694e+07  2.1421519404343873e+07  2.1478152289219532e+07  2.2517171967773046e+07  2.2309060954091843e+07  2.2376038686651368e+07  2.1102479653455861e+07  2.1085924446505193e+07  2.1072158536516357e+07  2.1597910222377241e+07  2.1679696052446656e+07  2.1662556502948362e+07  2.1571497332204904e+07  2.2699862166058276e+07  2.1152310426239554e+07  2.1149502324356068e+07  2.1154680161021300e+07  2.2162517524938431e+07  2.2135800904278912e+07  2.2147191476736654e+07  2.1259408656178348e+07  2.1296632802740239e+07  2.1319860787269164e+07  2.1089368997482598e+07  2.1122566017753959e+07  2.1120640103133850e+07  2.2203489267140985e+07  2.2255067088199656e+07  2.2229171738927413e+07  2.2179977764593739e+07  2.2189590098107111e+07  2.2186105162413407e+07  2.2183030544142995e+07  2.1333508683619548e+07  2.1136538210872777e+07  2.1404185545473497e+07  2.2770443258520145e+07  2.1526087997828208e+07  2.1499935342450511e+07  2.1108890795409340e+07  2.1129076293645762e+07  2.1153928949374821e+07  2.1164542260369647e+07  2.1134392290719621e+07  2.1097340403421197e+07  2.1706198881150693e+07  2.1646702606403939e+07  2.1666763527739286e+07  2.2224645841921799e+07  2.2329378333450388e+07  2.1225773621740449e+07  2.1263375938253649e+07  2.1208420812450211e+07  2.1231282249816444e+07  2.1301886527810454e+07  2.1184166819219638e+07  2.1161403033972662e+07  2.1141946887286138e+07  2.1341293501417898e+07  2.3396656146332499e+07  2.1680254925280795e+07  2.1754963445896953e+07  2.1644732194129050e+07  2.3014645035085574e+07  2.3012609868538342e+07  2.2946088661539182e+07  2.1525713012546342e+07  2.1624310394126352e+07  2.1546053755400084e+07  2.1322452657012459e+07  2.1716563382884771e+07  2.1705760154252961e+07  2.1103404503021829e+07  2.1097083030487318e+07  2.2580561759467971e+07  2.2544677683337726e+07  2.2636560176537745e+07  2.1124296941114634e+07  2.1134311931021959e+07  </DataArray> 
</PointData> 
</Piece>
</UnstructuredGrid>
</VTKFile>