<?xml version="1.0"?>
<VTKFile type="UnstructuredGrid"  version="0.1"  >
<UnstructuredGrid>
<Piece  NumberOfPoints="784" NumberOfCells="1320">
<Points>
<DataArray  type="Float64"  NumberOfComponents="3"  format="ascii">266913.131276 586512.314988 0  266738.13716 587762.325998 0  266363.132677 589012.328643 0  266175.641078 590169.601714 0  265666.575631 591040.7699119999 0  264875.64001 591687.766419 0  264900.636161 591845.049083 0  266088.14152 592012.3229499999 0  265561.959259 592661.17101 0  264288.136855 593037.368683 0  263865.194033 593999.8486949999 0  263850.641856 593236.729596 0  263625.634872 592756.525286 0  262689.574249 593299.848918 0  262475.636737 594003.0907310001 0  261934.554452 594340.929792 0  261725.631329 594932.094409 0  261729.256443 595728.498809 0  262138.136044 595012.330523 0  262288.141035 596262.333669 0  261488.994028 597511.480605 0  261234.15567 598316.338928 0  260815.635063 599014.863821 0  261400.643658 599389.7367680001 0  261322.963374 600022.185065 0  261119.455248 600931.061306 0  261607.436504 601293.0629359999 0  260807.446929 602089.899812 0  260025.642878 602988.868697 0  259613.135827 603937.3854499999 0  259050.643123 604100.987861 0  258411.880065 603988.6335979999 0  257764.357469 604449.872569 0  257971.239668 605320.429125 0  258041.396867 605740.635381 0  257188.143339 606987.394312 0  256038.141198 608112.3554550001 0  254788.141633 609087.4026939999 0  253588.140656 609812.362881 0  252338.135706 609737.4048949999 0  251088.138116 609787.404055 0  249963.12851 610287.399466 0  248613.130524 610462.365857 0  247363.132198 610687.407659 0  246113.130532 610837.411551 0  245832.347438 610918.209918 0  245016.946433 610958.5639439999 0  244313.129646 610762.372259 0  244400.622144 611378.093316 0  243939.669208 612460.8930899999 0  242960.649733 611984.892792 0  242170.381438 611919.647351 0  241888.122919 611112.375656 0  241393.380757 610467.6456149999 0  240594.157528 611306.369822 0  240525.621947 610804.648112 0  240363.123632 610512.3745050001 0  239113.123247 610262.374278 0  239813.12126 609037.412459 0  240588.122952 607812.368199 0  241013.119545 606625.9534560001 0  241454.373249 605724.888025 0  242238.120107 604687.3993 0  243088.121248 603462.362766 0  242860.319451 603007.3932640001 0  241563.116617 603812.361344 0  241778.400913 604327.642217 0  242059.837234 604824.879102 0  241475.620201 604923.2402390001 0  241462.182234 605449.881372 0  240906.219606 605674.888222 0  240241.856192 606891.125066 0  239891.734044 607841.012479 0  239048.653431 608724.889805 0  238118.054545 608974.895967 0  238888.111029 607337.406468 0  239738.119992 606212.362729 0  240288.12044 605687.4075229999 0  240380.212307 604729.521696 0  239347.309632 604603.204501 0  238888.112036 604387.408787 0  237913.11173 604687.401386 0  236784.172023 604499.882783 0  236883.408793 603717.08334 0  236154.933927 603595.565605 0  235688.103943 602912.369264 0  235763.108033 601662.366516 0  236363.110805 600412.35884 0  236738.107995 599162.356577 0  236525.607944 598482.2412899999 0  236138.109208 599362.357613 0  235725.063048 600325.4466510001 0  235091.948926 601408.5220979999 0  235188.10921 600312.366344 0  234375.602405 600833.9674270001 0  234663.109308 599912.358011 0  234138.105122 600062.365644 0  233955.307245 599029.561063 0  233338.103791 598387.401556 0  233988.09795 597862.356384 0  235138.101489 596637.3947750001 0  235563.1039 595387.392428 0  236513.103639 594212.356312 0  237163.10684 592987.3929869999 0  238313.103031 591862.3515540001 0  239513.107028 590812.3512640001 0  240638.102135 589787.387271 0  241463.109549 588587.378486 0  242294.489816 587443.735215 0  242913.101099 586512.341804 0  243544.066915 585474.859604 0  243040.448415 585184.975583 0  242438.10214 585337.38015 0  241313.102353 586562.339499 0  240538.107104 587787.382449 0  240114.641085 588588.939407 0  239388.100256 589437.382238 0  238188.104456 590512.346358 0  236938.100507 591362.349798 0  235813.10453 592537.396388 0  234864.502938 593178.7753880001 0  234463.097651 592862.357267 0  235113.0965 591662.3545979999 0  235713.101522 590412.346099 0  235777.688431 589976.7582779999 0  234943.583145 590706.265132 0  234462.482256 591490.2841159999 0  233801.497784 592112.940187 0  233388.099101 591787.394208 0  234013.093099 590437.393065 0  234776.217248 587148.7548100001 0  235163.093726 586562.3486189999 0  235313.098918 585483.229012 0  235250.59732 584662.298153 0  235588.093896 583337.379493 0  236329.432041 582199.858992 0  237188.096234 581462.3349939999 0  237463.088521 580212.335511 0  238350.592558 579057.652616 0  238591.415797 578574.847681 0  238313.094106 577612.328905 0  239229.696732 577695.769664 0  240195.161018 577513.008613 0  240614.996733 577149.8518770001 0  240663.091715 577412.332622 0  240288.092486 578662.334085 0  239942.357258 579508.095811 0  240438.100019 580212.3334220001 0  241338.095553 580387.375355 0  241238.099828 579137.369157 0  241788.097003 577887.370889 0  241983.554649 577241.9220939999 0  242054.178239 576927.8105029999 0  242588.100699 575737.366175 0  243149.324833 574898.583978 0  243695.278626 573919.517981 0  244268.494418 573724.8454239999 0  244995.134063 573930.2767810001 0  245417.314363 573391.601898 0  243450.599125 571859.479773 0  245776.797908 572599.8353060001 0  246779.639852 572973.285167 0  248034.741935 573186.082054 0  249413.10651 573162.3205520001 0  250496.922226 573271.1521899999 0  251613.105126 573237.3551319999 0  252421.824577 572846.032906 0  253256.245022 572580.4733130001 0  253739.471933 571960.9547369999 0  254174.511864 572149.8346569999 0  254484.944333 571684.194807 0  254384.108649 570891.346712 0  254344.002752 570218.26407 0  255025.609604 570829.0294979999 0  255715.005913 570489.264586 0  256218.846343 570774.828355 0  256834.349083 570508.5908 0  257390.092515 570014.308325 0  257624.431042 568493.478911 0  259355.811717 569380.021819 0  260033.372814 569617.066669 0  262679.741751 570320.699974 0  263289.115756 569524.817815 0  263463.114338 570512.301061 0  264638.198419 570687.3443539999 0  265058.220065 571334.378467 0  265447.561421 572077.90485 0  265488.125257 573137.3446020001 0  265131.937715 573963.293593 0  265432.389648 575093.068786 0  265638.122314 576338.029955 0  265750.630817 577371.8281319999 0  265738.570663 578561.9098850001 0  265875.630866 579139.630549 0  266213.129247 579862.311842 0  266563.130472 581112.314509 0  266238.135356 582362.310259 0  265938.12863 583612.320897 0  265738.131342 584762.3210189999 0  266875.638633 585365.358768 0  264018.7239399826 593650.4646671159 0  262236.3944351029 595831.1252656333 0  241846.246678 605206.1436625 0  240200.622106 608424.8903290001 0  240943.4862974102 610939.7757535663 0  236550.6094 599787.3577085 0  238528.1212051503 608102.9081793013 0  244413.4891967989 572609.5960859474 0  236382.0474488751 598808.3067022427 0  235369.601910944 600933.5380148316 0  235413.099011 591037.3503485 0  235446.2251831186 590266.6553871984 0  240475.5921005 578037.3333535 0  240413.173949154 577324.4280286073 0  240574.037899 606283.0066440001 0  263857.9179445 593618.2891454998 0  264153.4303974913 593343.916675058 0  242042.1833925 604946.7714812499 0  241650.3099635 605465.51584375 0  244613.6985165 572229.6575395 0  236631.8579695 598822.2989335 0  235140.029068 600860.444221 0  241767.7287175 604874.0596705 0  242140.15174975 604817.0853906251 0  234781.8558075 600573.1668855001 0  242091.167571125 604881.9284359375 0  234519.3558565 600373.162719 0  254604.8337712102 583989.0014118921 0  250699.5846056537 594617.3297041012 0  250540.4796469513 602258.2940568649 0  248483.7490186612 580334.7345534252 0  258549.2190328319 577893.951823392 0  257067.0067473103 590016.5327808241 0  243285.0921999099 596333.923437875 0  248333.1386145258 589098.0389905117 0  256142.8445072741 595883.3911551933 0  260245.1368072523 583315.2785712298 0  253472.3380211276 578932.2908163272 0  246432.3347504817 599884.5019511909 0  261555.9240922556 588041.186709004 0  247293.1100123104 605823.8307887657 0  246458.2798550911 593168.8646574575 0  252840.0183145193 588226.5564648228 0  249828.2874404451 584740.7888937403 0  255409.5660975206 600458.8956828594 0  260819.9733392385 574219.403683011 0  252584.2262054711 605722.6603825617 0  254049.8830611471 592547.4852571967 0  250015.4356193061 598425.2225922942 0  245872.072249477 577604.9761853142 0  262002.1583249522 579753.4663046852 0  257732.6630933878 586227.970805314 0  250242.5556457866 577017.3316409125 0  244921.6453001869 581816.6358421432 0  256520.3890639471 580904.824006648 0  240779.0970645865 599524.6679555867 0  257100.1829219198 574459.5922545703 0  239912.2630002034 595231.1172704464 0  244703.0875078634 590068.6945953515 0  242549.5490268674 592874.3693043783 0  251586.0465921376 581796.2215047925 0  246643.189997516 596527.447801719 0  251049.7658069622 591057.6752245198 0  253014.5731561695 596998.6601086652 0  238680.2197353724 584542.2309791476 0  259715.365803504 591937.1938619445 0  254097.157218761 575731.4494927844 0  246806.6408589328 586139.0877599345 0  246136.1179750556 602959.471719323 0  253520.7033332401 602835.180253843 0  244125.4295793909 607538.9817227355 0  252546.8895354472 599881.3279113505 0  258289.0983523553 600397.640191779 0  247518.7952199645 583037.3718217331 0  263140.3959879661 582529.2228421422 0  262894.8586894067 585442.3590432997 0  256968.6320599076 593040.7691844478 0  243573.0187527719 600218.2795730785 0  258888.5766127351 595139.7745218446 0  262588.7569809347 576734.8569237856 0  259318.4257992262 580601.2540325444 0  249963.3812725965 607065.7205847671 0  257494.5307999607 583482.5893534871 0  258906.4757205145 572278.8089438241 0  237751.446593475 587300.5805003279 0  255142.4708720699 604956.7580261135 0  258485.4978753244 597756.9250383095 0  255516.7820591553 587791.39641967 0  239758.4692108706 601926.8203218657 0  255873.0092222999 577739.5085867504
[...]
<PointData  Scalars="f_32-0"> 
<DataArray  type="Float64"  Name="f_32-0"  format="ascii">1.5733276553471744e+07  1.5769482951098477e+07  1.5810942638907550e+07  1.5844486559568675e+07  1.5866802034321161e+07  1.5899664040703399e+07  1.5911320053999156e+07  1.5921443514376348e+07  1.5921215122400492e+07  1.5926831871795228e+07  1.5930880141217619e+07  1.5929574554792697e+07  1.5933639705341993e+07  1.5987516611072989e+07  1.6030134331964407e+07  1.6072312159090292e+07  1.6136389916608028e+07  1.6216527236510113e+07  1.6228521412711333e+07  1.6239697650849203e+07  1.6302145891892362e+07  1.6354303472888755e+07  1.6419012520662375e+07  1.6458473760125140e+07  1.6477462870767808e+07  1.6519789313457236e+07  1.6532765094972152e+07  1.6553576944233507e+07  1.6598364122392019e+07  1.6631420430412510e+07  1.6641382382833069e+07  1.6670268319452511e+07  1.6752169213025715e+07  1.6825033543577097e+07  1.6838593365728211e+07  1.6896458932170916e+07  1.6959443312673073e+07  1.7014683329180889e+07  1.7050164103230480e+07  1.7080161602513045e+07  1.7124408883357570e+07  1.7167713063678294e+07  1.7208737096545674e+07  1.7247264974882934e+07  1.7282869275882337e+07  1.7290397394875053e+07  1.7309476098582521e+07  1.7332763504437078e+07  1.7349657968128640e+07  1.7357061657768685e+07  1.7358724059686579e+07  1.7360287616594672e+07  1.7360116672803104e+07  1.7363081769646775e+07  1.7369356946501661e+07  1.7368883416478679e+07  1.7368941687968884e+07  1.7371258271581408e+07  1.7364657595188282e+07  1.7340341043503005e+07  1.7307672009720325e+07  1.7276778539770160e+07  1.7220687688470196e+07  1.7118900121234518e+07  1.7093700623431575e+07  1.7166625213028703e+07  1.7192346349849872e+07  1.7199342540717710e+07  1.7206567011184454e+07  1.7218064938470293e+07  1.7234428082545120e+07  1.7294030773473222e+07  1.7313281581793699e+07  1.7322278163503017e+07  1.7324082873542525e+07  1.7314354650412228e+07  1.7285228425751399e+07  1.7250942377138622e+07  1.7203127529732537e+07  1.7190928238663983e+07  1.7191834513412278e+07  1.7195423867322292e+07  1.7196405486515369e+07  1.7193795770907469e+07  1.7192137093733370e+07  1.7189720218100373e+07  1.7179752637623176e+07  1.7153325889608018e+07  1.7111251599468060e+07  1.7096012639477145e+07  1.7117352088188808e+07  1.7127896599937897e+07  1.7131395314295173e+07  1.7128533220032912e+07  1.7129792982691668e+07  1.7126784175333355e+07  1.7126157787858181e+07  1.7121892064139187e+07  1.7119781598983828e+07  1.7114752309503682e+07  1.7072712340752702e+07  1.7024090088650670e+07  1.6953545167352702e+07  1.6876340069442470e+07  1.6771172957741210e+07  1.6627386239875600e+07  1.6452848176337646e+07  1.6278242604190061e+07  1.6137889888487509e+07  1.6049576524023045e+07  1.6001530195885753e+07  1.6051389355605844e+07  1.6132390295443818e+07  1.6277168574389568e+07  1.6358596079733927e+07  1.6392814780083928e+07  1.6424887404595681e+07  1.6462929889152285e+07  1.6491004914628819e+07  1.6511170102891941e+07  1.6515680292423733e+07  1.6515724434541296e+07  1.6508780574700322e+07  1.6490306640739882e+07  1.6483824330229554e+07  1.6497543490389669e+07  1.6506349136853119e+07  1.6509147386830330e+07  1.6509149957775541e+07  1.6500043886289960e+07  1.6442274564843114e+07  1.6423058231104424e+07  1.6388846281228684e+07  1.6367891981854118e+07  1.6337989177827306e+07  1.6305264125923047e+07  1.6268068432948075e+07  1.6238819855207367e+07  1.6226948707675062e+07  1.6228411136927873e+07  1.6230864844237825e+07  1.6230428340526851e+07  1.6231354086074797e+07  1.6231923197739203e+07  1.6231852570648748e+07  1.6227008297401080e+07  1.6209225659166779e+07  1.6151634125136266e+07  1.6013755481983528e+07  1.5894642571680835e+07  1.5823819566395624e+07  1.5792533090814333e+07  1.5780925695349505e+07  1.5740870949286232e+07  1.5714928002810359e+07  1.5695324445602406e+07  1.5688894014938744e+07  1.5668749617338417e+07  1.5647714081165774e+07  1.5650807510734251e+07  1.5642591698390784e+07  1.5622479614219135e+07  1.5576347024713702e+07  1.5516747670321813e+07  1.5466189710415676e+07  1.5411336089366345e+07  1.5382060437632987e+07  1.5368733651319757e+07  1.5368283651411681e+07  1.5369789931407183e+07  1.5377932347171633e+07  1.5384968118680963e+07  1.5386043320657505e+07  1.5385241286989534e+07  1.5387395000992548e+07  1.5389509697648125e+07  1.5395701584170289e+07  1.5403404437407468e+07  1.5409597826112233e+07  1.5408746098453971e+07  1.5409610510229904e+07  1.5415618614240484e+07  1.5417126957235413e+07  1.5416313331656327e+07  1.5415635613639420e+07  1.5413995153021356e+07  1.5410741095150562e+07  1.5403780082130788e+07  1.5389267859140500e+07  1.5359435923200602e+07  1.5321345632594138e+07  1.5293247578294726e+07  1.5289176655209674e+07  1.5309981893510707e+07  1.5350031691133421e+07  1.5411589291811116e+07  1.5472796330734285e+07  1.5551087708948413e+07  1.5646732682569478e+07  1.5706401820831997e+07  1.5930532927024581e+07  1.6231399781233925e+07  1.7252378502959047e+07  1.7355241678572185e+07  1.7368589147276159e+07  1.7133664873576682e+07  1.7321516477282271e+07  1.5649083105692592e+07  1.7105988882164836e+07  1.7130696872084811e+07  1.6500872901252044e+07  1.6488798351620477e+07  1.6230671662318844e+07  1.6231803622903377e+07  1.7269321092188232e+07  1.5930530892416107e+07  1.5929623410024209e+07  1.7237445224766556e+07  1.7265644136461668e+07  1.5649083902926097e+07  1.7099965057766046e+07  1.7130698764562462e+07  1.7200442539021436e+07  1.7229342423323415e+07  1.7129262497465495e+07  1.7233451774535399e+07  1.7129244846228693e+07  1.5407254233963814e+07  1.6046922575916648e+07  1.6710818912667189e+07  1.5592988509434531e+07  1.5233276829419516e+07  1.5562508620793803e+07  1.6734258204610785e+07  1.5766588948594753e+07  1.6144024802915746e+07  1.5442179503316280e+07  1.5338454402802838e+07  1.6671951614147523e+07  1.5716709116803901e+07  1.7113473414969113e+07  1.6183523245863738e+07  1.5460142077722350e+07  1.5676161140069706e+07  1.6397320525295483e+07  1.5364125180908376e+07  1.6952588447213724e+07  1.5842751868101478e+07  1.6296356734480007e+07  1.5668566470156062e+07  1.5268793190191826e+07  1.5378391455370149e+07  1.5457068961997772e+07  1.5825717291949512e+07  1.5343537975288793e+07  1.7035425615647532e+07  1.5332602721558539e+07  1.6869107941096731e+07  1.6047791899603240e+07  1.6525161908743575e+07  1.5535260372610666e+07  1.6467436443533616e+07  1.5709298407631775e+07  1.6153928171148965e+07  1.6302278324664952e+07  1.5896110751779700e+07  1.5296139390267394e+07  1.5826407914400222e+07  1.6952734575155370e+07  1.6700707781779986e+07  1.7275803841657203e+07  1.6389197263853626e+07  1.6474648603276381e+07  1.5733886750149462e+07  1.5444667780213414e+07  1.5628430683118146e+07  1.5906957619480224e+07  1.6934435070616521e+07  1.6144387047175178e+07  1.5303866902964719e+07  1.5288937584365258e+07  1.7092107770308178e+07  1.5387256659735903e+07  1.5389485857437188e+07  1.6405832290664006e+07  1.6844202553920958e+07  1.6313044585861219e+07  1.5313574548762370e+07  1.7144848873686697e+07  1.5261599485797470e+07  1.5865563646914216e+07  1.6063393849517267e+07  1.5970123827061294e+07  1.5803173400274303e+07  1.5426764210331261e+07  1.5761219463680739e+07  1.5550372361378022e+07  1.5478343022531480e+07  1.5577463323521793e+07  1.5562353740932915e+07  1.5574449687543739e+07  1.7232724730036013e+07  1.6942061061646204e+07  1.5541333742416240e+07  1.7155321569959048e+07  1.6722099085013719e+07  1.6550786650819078e+07  1.7019760857565135e+07  1.6217487619639041e+07  1.5877686670457989e+07  1.6209498412713932e+07  1.6600499235477140e+07  1.5645202590847259e+07  1.6878548638099764e+07  1.5367565697740946e+07  1.6033905590937112e+07  1.5402724960262850e+07  1.5562246732316708e+07  1.6203264770432934e+07  1.6905912264831375e+07  1.5920043611166772e+07  1.6481326141744308e+07  1.5938766904221060e+07  1.6710538858525576e+07  1.5281680260102715e+07  1.5678496134907693e+07  1.5629031885075040e+07  1.6998797404559121e+07  1.6238824817287315e+07  1.5330408717929343e+07  1.7025520404125240e+07  1.5887269239489608e+07  1.7113399791937377e+07  1.5370365223432321e+07  1.7238989760635916e+07  1.7232877774794944e+07  1.5753841299378604e+07  1.5913999788500177e+07  1.7235884062796425e+07  1.7283425419259485e+07  1.7079107021421935e+07  1.7105407913753588e+07  1.6475698950866403e+07  1.5362432962993853e+07  1.7010641744351495e+07  1.6857736901698280e+07  1.5776652202432469e+07  1.5908770177520389e+07  1.5842903677836595e+07  1.7273644148144424e+07  1.7231558009879254e+07  1.6076134210620197e+07  1.7176462332680948e+07  1.7176218979379706e+07  1.7205146562636185e+07  1.7287397433408488e+07  1.5967073769703386e+07  1.5628450717331354e+07  1.6480696490497917e+07  1.5384707844088031e+07  1.5880676554737551e+07  1.5285776622122757e+07  1.6439441157619745e+07  1.7347909723785471e+07  1.6357308166221794e+07  1.6488979686078617e+07  1.7086359219604034e+07  1.6081989262832031e+07  1.5404209174594823e+07  1.6482984198888546e+07  1.5357130350556804e+07  1.5694425038525401e+07  1.7103267014312554e+07  1.7065347294660911e+07  1.6216826948750751e+07  1.7347525000697892e+07  1.5490978928087080e+07  1.7140945012611203e+07  1.6314675913083231e+07  1.5408883087078970e+07  1.5369556226652591e+07  1.5332854795073081e+07  1.6621723958034594e+07  1.7067534175732512e+07  1.7030028212693840e+07  1.6480088186726015e+07  1.7259769850061145e+07  1.6173945666511014e+07  1.5646979813796358e+07  1.5646926605719950e+07  1.5397582106449230e+07  1.7235500502700731e+07  1.7245115689048894e+07  1.7248972876553275e+07  1.6841798081075292e+07  1.7043310361844234e+07  1.7252142598002270e+07  1.7186630688719742e+07  1.6383481218883432e+07  1.7367158539794892e+07  1.7365580534345765e+07  1.6132175491450468e+07  1.5298159925671864e+07  1.6222552511144187e+07  1.7088344845597837e+07  1.6017828187921219e+07  1.6290810562644342e+07  1.7352777916697372e+07  1.6201812056570912e+07  1.6675482438927336e+07  1.5562592630249780e+07  1.5783504369590845e+07  1.5759564463778302e+07  1.5809347594044020e+07  1.7119493970302716e+07  1.5906849063333910e+07  1.5921832145749733e+07  1.5889831083354985e+07  1.5919079961131431e+07  1.5856934872581914e+07  1.5412599635408690e+07  1.5405083307251154e+07  1.5925047633603856e+07  1.5744563422286302e+07  1.6514303782801621e+07  1.6513867490547176e+07  1.7361402645060007e+07  1.6307527985099133e+07  1.6121499292107834e+07  1.5918472481908647e+07  1.5948818243250329e+07  1.5994026783257561e+07  1.6091304721815316e+07  1.6010117009652944e+07  1.6074713771896550e+07  1.6214508594667505e+07  1.6102395022617675e+07  1.6171207418412153e+07  1.6286498645375965e+07  1.6230336950606069e+07  1.5924152724116938e+07  1.6048734328007756e+07  1.5545858729977293e+07  1.5576236593064450e+07  1.5536620694482215e+07  1.5492926340999331e+07  1.5505497480910534e+07  1.5438280014961569e+07  1.5479579326833906e+07  1.5452875401007324e+07  1.5367332340193426e+07  1.5356037990101619e+07  1.5331997222775141e+07  1.5305788388627088e+07  1.5311149846323738e+07  1.5285083677886980e+07  1.5295569399424704e+07  1.5297554129712701e+07  1.5288890109293550e+07  1.5282746040975746e+07  1.5330092791952386e+07  1.5298293101442367e+07  1.5341401179686595e+07  1.5315771192836575e+07  1.5380368042490425e+07  1.5474580315292181e+07  1.5414761914561400e+07  1.5321037276289627e+07  1.5399769211365351e+07  1.5373143601802308e+07  1.5385256637757203e+07  1.6136165604860391e+07  1.6087951898299217e+07  1.6015058253781745e+07  1.6107827219503582e+07  1.6556463452621154e+07  1.6836824707077041e+07  1.6626298897071561e+07  1.6790368376589872e+07  1.5658322638851238e+07  1.5541321388796175e+07  1.5569886285447363e+07  1.5627219243625587e+07  1.5242819914031442e+07  1.5264177274079932e+07  1.5277050439589540e+07  1.5243877703116078e+07  1.5244219773818636e+07  1.5248199849266531e+07  1.5743764836475588e+07  1.5732922014458727e+07  1.5412641395794343e+07  1.5531260376623638e+07  1.5548617467254672e+07  1.6808686314542677e+07  1.6635932995456764e+07  1.5711874135468500e+07  1.5785521016385410e+07  1.5823886549854795e+07  1.5706402886524085e+07  1.5830305790084925e+07  1.5825471089685190e+07  1.6006488737297799e+07  1.6143787757062921e+07  1.6083384484218378e+07  1.5336364797077801e+07  1.5440888845380032e+07  1.5534393001610799e+07  1.5359086203575026e+07  1.5375422435628710e+07  1.5335901941114305e+07  1.5439212888205491e+07  1.5290296485345684e+07  1.5288736667744134e+07  1.5385043850806423e+07  1.5403588631482195e+07  1.6465170585251573e+07  1.6803432800171517e+07  1.6587564753418306e+07  1.6854119657264382e+07  1.7041491930596340e+07  1.6351225569434151e+07  1.6038769761271497e+07  1.6330893196118016e+07  1.6198663528148914e+07  1.5362630860818673e+07  1.5477329417621810e+07  1.5548082799032938e+07  1.5392398149904599e+07  1.6544778932826016e+07  1.6370484884364786e+07  1.6436858921888271e+07  1.6279998878153320e+07  1.5346261177907886e+07  1.5336280478807319e+07  1.5771538379373049e+07  1.5860319388183953e+07  1.5699950636470292e+07  1.6347800618962480e+07  1.6196784375491757e+07  1.6427404043988330e+07  1.6217257656851551e+07  1.5727691716572616e+07  1.5620331390151776e+07  1.5614058259928908e+07  1.5670213498619657e+07  1.5645934587516151e+07  1.5687642651739676e+07  1.5334245144221015e+07  1.5266086247805130e+07  1.5269754232503001e+07  1.5256886394343723e+07  1.5292041475596935e+07  1.5275582249935094e+07  1.5378039298592899e+07  1.5312821925997049e+07  1.5461085684517834e+07  1.5288501729807064e+07  1.5348053325978922e+07  1.5456119544960275e+07  1.5520782020193895e+07  1.5513367360058369e+07  1.5390441113299821e+07  1.5471947498274345e+07  1.5770458683390329e+07  1.5945963329377240e+07  1.5813267794336300e+07  1.5744984961569868e+07  1.5312178484586975e+07  1.5375720616063112e+07  1.5286941894487606e+07  1.5380770618130423e+07  1.5304367312665490e+07  1.5366318671799283e+07  1.5280112098896436e+07  1.5305830274438512e+07  1.5348615430935290e+07  1.5363786132370768e+07  1.5329081807660019e+07  1.5961282257305603e+07  1.5979994313947238e+07  1.6129185238223525e+07  1.6180983525425093e+07  1.6498818368583480e+07  1.5478780726789862e+07  1.5507508444515120e+07  1.6331077961137341e+07  1.5827070887352303e+07  1.5642965856638869e+07  1.5627944951133126e+07  1.5794117430063508e+07  1.6243022182901515e+07  1.6180376928114071e+07  1.6258354610535756e+07  1.6257245068661673e+07  1.5893858021422217e+07  1.5732905987969702e+07  1.5273432720167436e+07  1.5322788821882030e+07  1.5312313206185048e+07  1.5747324078723162e+07  1.5870168360240597e+07  1.6745310100378798e+07  1.6906752434629627e+07  1.6546550972147878e+07  1.6827381069051258e+07  1.6638525090101127e+07  1.6476178490782168e+07  1.6258420891722055e+07  1.6335803711310012e+07  1.5694322820207793e+07  1.5383292735742358e+07  1.5713348931373693e+07  1.6005271132214257e+07  1.5296211983983459e+07  1.5272879328501670e+07  1.5301754127503885e+07  1.5364460691531852e+07  1.5450266446748575e+07  1.5409436599971386e+07  1.5401309479804218e+07  1.5307760324255913e+07  1.5753005120820215e+07  1.6016743793707099e+07  1.6073191941613639e+07  1.6095704333796497e+07  1.6135861769710118e+07  1.5943365354828857e+07  1.5904444383700738e+07  1.5741824690379553e+07  1.5490621660961319e+07  1.5516257461650124e+07  1.5556277529084062e+07  1.5567895789518027e+07  1.5535371633443307e+07  1.5568987298909256e+07  1.5586377035500521e+07  1.5464311426991133e+07  1.6713311980814837e+07  1.5501654832423266e+07  1.5613393608201155e+07  1.5891901348899731e+07  1.6053247037348455e+07  1.6363776216014052e+07  1.6267208470138408e+07  1.5304184340269666e+07  1.5337825942192791e+07  1.5346892171026813e+07  1.6022590398381209e+07  1.5274312645867985e+07  1.6146871321318997e+07  1.5417365872880744e+07  1.5337864984009609e+07  1.6164136127712533e+07  1.5336343411148999e+07  1.6120450455923323e+07  1.5233511106574021e+07  1.5239177167339290e+07  1.5249068325186020e+07  1.5237381384036308e+07  1.5259480672637790e+07  1.5820396010687422e+07  1.5351027784703108e+07  1.5386733608391788e+07  1.5368455459211498e+07  1.6692277118678812e+07  1.5586825626205646e+07  1.5408496589666799e+07  1.5421599648712605e+07  1.5469252279120335e+07  1.5335473878458850e+07  1.6204372341359904e+07  1.6242203273070408e+07  1.5292689469889838e+07  1.5293681418207863e+07  1.5329385399238972e+07  1.5314333927156119e+07  1.5399512509625075e+07  1.5754778842004770e+07  1.5697520538053656e+07  1.5763520464897219e+07  1.5650652942107743e+07  1.5802819439392015e+07  1.5313066803703636e+07  1.5296023926161986e+07  1.5308142689142577e+07  1.5303405819768889e+07  1.6317019209216014e+07  1.5262780603149194e+07  1.5299067993394857e+07  1.5327884122231126e+07  1.5353922501180079e+07  1.5329537897045719e+07  1.5353239381669182e+07  1.5340486921618724e+07  1.5272850192908557e+07  1.5263515988426827e+07  1.5266782111584717e+07  1.5485012581845216e+07  1.6499527403276280e+07  1.6561823754225712e+07  1.6641687350247700e+07  1.6208178110470656e+07  1.6222886509236440e+07  1.5429490637087705e+07  1.5564396684187388e+07  1.5537925230598891e+07  1.5587159892440131e+07  1.5979900995514881e+07  1.5874413941420386e+07  1.5909826412355861e+07  1.5249886982510976e+07  1.5263665160230355e+07  1.5290762158696989e+07  1.5672925004526312e+07  1.5709391886234274e+07  1.5681355976912644e+07  1.5643163810421724e+07  1.6141262106222423e+07  1.5277499893297646e+07  1.5270437442186518e+07  1.5274859971264116e+07  1.6127136506882360e+07  1.6110382942064598e+07  1.6115634328005612e+07  1.5442468313979544e+07  1.5481370371131251e+07  1.5513393745819610e+07  1.5317410274133492e+07  1.5288139893654250e+07  1.5283783161490571e+07  1.6186964268019348e+07  1.6243920971539279e+07  1.6214338471355796e+07  1.6169801583788443e+07  1.6175578535022108e+07  1.6182270653590022e+07  1.6158598483887091e+07  1.5536068757058689e+07  1.5278378398741402e+07  1.5302270081903715e+07  1.6170417463335432e+07  1.5597207378311349e+07  1.5590272392725276e+07  1.5238921196352767e+07  1.5247216371381976e+07  1.5254451411577290e+07  1.5272385429538792e+07  1.5257318625841165e+07  1.5258449165303899e+07  1.5469917606773980e+07  1.5398231423277099e+07  1.5470828018617235e+07  1.5753792290032232e+07  1.5854340380838241e+07  1.5332497435666079e+07  1.5384299165103238e+07  1.5323494409582645e+07  1.5354756978052635e+07  1.5420777417603588e+07  1.5311201990125820e+07  1.5286553908395240e+07  1.5274316240881572e+07  1.5456676236789793e+07  1.6660410737494120e+07  1.5377038319737367e+07  1.5439123823905570e+07  1.5444800095890373e+07  1.6312033010654332e+07  1.6308632265811624e+07  1.6260494260312622e+07  1.5640343020583304e+07  1.5703395193312252e+07  1.5640508382853797e+07  1.5504982653556386e+07  1.5716107119620232e+07  1.5741811536922455e+07  1.5284051578352546e+07  1.5306094292429009e+07  1.6038194717199121e+07  1.6002734988795301e+07  1.6085552033389140e+07  1.5315685534860613e+07  1.5272964805175135e+07  </DataArray> 
</PointData> 
</Piece>
</UnstructuredGrid>
</VTKFile>