<?xml version="1.0"?>
<VTKFile type="UnstructuredGrid"  version="0.1"  >
<UnstructuredGrid>
<Piece  NumberOfPoints="784" NumberOfCells="1320">
<Points>
<DataArray  type="Float64"  NumberOfComponents="3"  format="ascii">266913.131276 586512.314988 0  266738.13716 587762.325998 0  266363.132677 589012.328643 0  266175.641078 590169.601714 0  265666.575631 591040.7699119999 0  264875.64001 591687.766419 0  264900.636161 591845.049083 0  266088.14152 592012.3229499999 0  265561.959259 592661.17101 0  264288.136855 593037.368683 0  263865.194033 593999.8486949999 0  263850.641856 593236.729596 0  263625.634872 592756.525286 0  262689.574249 593299.848918 0  262475.636737 594003.0907310001 0  261934.554452 594340.929792 0  261725.631329 594932.094409 0  261729.256443 595728.498809 0  262138.136044 595012.330523 0  262288.141035 596262.333669 0  261488.994028 597511.480605 0  261234.15567 598316.338928 0  260815.635063 599014.863821 0  261400.643658 599389.7367680001 0  261322.963374 600022.185065 0  261119.455248 600931.061306 0  261607.436504 601293.0629359999 0  260807.446929 602089.899812 0  260025.642878 602988.868697 0  259613.135827 603937.3854499999 0  259050.643123 604100.987861 0  258411.880065 603988.6335979999 0  257764.357469 604449.872569 0  257971.239668 605320.429125 0  258041.396867 605740.635381 0  257188.143339 606987.394312 0  256038.141198 608112.3554550001 0  254788.141633 609087.4026939999 0  253588.140656 609812.362881 0  252338.135706 609737.4048949999 0  251088.138116 609787.404055 0  249963.12851 610287.399466 0  248613.130524 610462.365857 0  247363.132198 610687.407659 0  246113.130532 610837.411551 0  245832.347438 610918.209918 0  245016.946433 610958.5639439999 0  244313.129646 610762.372259 0  244400.622144 611378.093316 0  243939.669208 612460.8930899999 0  242960.649733 611984.892792 0  242170.381438 611919.647351 0  241888.122919 611112.375656 0  241393.380757 610467.6456149999 0  240594.157528 611306.369822 0  240525.621947 610804.648112 0  240363.123632 610512.3745050001 0  239113.123247 610262.374278 0  239813.12126 609037.412459 0  240588.122952 607812.368199 0  241013.119545 606625.9534560001 0  241454.373249 605724.888025 0  242238.120107 604687.3993 0  243088.121248 603462.362766 0  242860.319451 603007.3932640001 0  241563.116617 603812.361344 0  241778.400913 604327.642217 0  242059.837234 604824.879102 0  241475.620201 604923.2402390001 0  241462.182234 605449.881372 0  240906.219606 605674.888222 0  240241.856192 606891.125066 0  239891.734044 607841.012479 0  239048.653431 608724.889805 0  238118.054545 608974.895967 0  238888.111029 607337.406468 0  239738.119992 606212.362729 0  240288.12044 605687.4075229999 0  240380.212307 604729.521696 0  239347.309632 604603.204501 0  238888.112036 604387.408787 0  237913.11173 604687.401386 0  236784.172023 604499.882783 0  236883.408793 603717.08334 0  236154.933927 603595.565605 0  235688.103943 602912.369264 0  235763.108033 601662.366516 0  236363.110805 600412.35884 0  236738.107995 599162.356577 0  236525.607944 598482.2412899999 0  236138.109208 599362.357613 0  235725.063048 600325.4466510001 0  235091.948926 601408.5220979999 0  235188.10921 600312.366344 0  234375.602405 600833.9674270001 0  234663.109308 599912.358011 0  234138.105122 600062.365644 0  233955.307245 599029.561063 0  233338.103791 598387.401556 0  233988.09795 597862.356384 0  235138.101489 596637.3947750001 0  235563.1039 595387.392428 0  236513.103639 594212.356312 0  237163.10684 592987.3929869999 0  238313.103031 591862.3515540001 0  239513.107028 590812.3512640001 0  240638.102135 589787.387271 0  241463.109549 588587.378486 0  242294.489816 587443.735215 0  242913.101099 586512.341804 0  243544.066915 585474.859604 0  243040.448415 585184.975583 0  242438.10214 585337.38015 0  241313.102353 586562.339499 0  240538.107104 587787.382449 0  240114.641085 588588.939407 0  239388.100256 589437.382238 0  238188.104456 590512.346358 0  236938.100507 591362.349798 0  235813.10453 592537.396388 0  234864.502938 593178.7753880001 0  234463.097651 592862.357267 0  235113.0965 591662.3545979999 0  235713.101522 590412.346099 0  235777.688431 589976.7582779999 0  234943.583145 590706.265132 0  234462.482256 591490.2841159999 0  233801.497784 592112.940187 0  233388.099101 591787.394208 0  234013.093099 590437.393065 0  234776.217248 587148.7548100001 0  235163.093726 586562.3486189999 0  235313.098918 585483.229012 0  235250.59732 584662.298153 0  235588.093896 583337.379493 0  236329.432041 582199.858992 0  237188.096234 581462.3349939999 0  237463.088521 580212.335511 0  238350.592558 579057.652616 0  238591.415797 578574.847681 0  238313.094106 577612.328905 0  239229.696732 577695.769664 0  240195.161018 577513.008613 0  240614.996733 577149.8518770001 0  240663.091715 577412.332622 0  240288.092486 578662.334085 0  239942.357258 579508.095811 0  240438.100019 580212.3334220001 0  241338.095553 580387.375355 0  241238.099828 579137.369157 0  241788.097003 577887.370889 0  241983.554649 577241.9220939999 0  242054.178239 576927.8105029999 0  242588.100699 575737.366175 0  243149.324833 574898.583978 0  243695.278626 573919.517981 0  244268.494418 573724.8454239999 0  244995.134063 573930.2767810001 0  245417.314363 573391.601898 0  243450.599125 571859.479773 0  245776.797908 572599.8353060001 0  246779.639852 572973.285167 0  248034.741935 573186.082054 0  249413.10651 573162.3205520001 0  250496.922226 573271.1521899999 0  251613.105126 573237.3551319999 0  252421.824577 572846.032906 0  253256.245022 572580.4733130001 0  253739.471933 571960.9547369999 0  254174.511864 572149.8346569999 0  254484.944333 571684.194807 0  254384.108649 570891.346712 0  254344.002752 570218.26407 0  255025.609604 570829.0294979999 0  255715.005913 570489.264586 0  256218.846343 570774.828355 0  256834.349083 570508.5908 0  257390.092515 570014.308325 0  257624.431042 568493.478911 0  259355.811717 569380.021819 0  260033.372814 569617.066669 0  262679.741751 570320.699974 0  263289.115756 569524.817815 0  263463.114338 570512.301061 0  264638.198419 570687.3443539999 0  265058.220065 571334.378467 0  265447.561421 572077.90485 0  265488.125257 573137.3446020001 0  265131.937715 573963.293593 0  265432.389648 575093.068786 0  265638.122314 576338.029955 0  265750.630817 577371.8281319999 0  265738.570663 578561.9098850001 0  265875.630866 579139.630549 0  266213.129247 579862.311842 0  266563.130472 581112.314509 0  266238.135356 582362.310259 0  265938.12863 583612.320897 0  265738.131342 584762.3210189999 0  266875.638633 585365.358768 0  264018.7239399826 593650.4646671159 0  262236.3944351029 595831.1252656333 0  241846.246678 605206.1436625 0  240200.622106 608424.8903290001 0  240943.4862974102 610939.7757535663 0  236550.6094 599787.3577085 0  238528.1212051503 608102.9081793013 0  244413.4891967989 572609.5960859474 0  236382.0474488751 598808.3067022427 0  235369.601910944 600933.5380148316 0  235413.099011 591037.3503485 0  235446.2251831186 590266.6553871984 0  240475.5921005 578037.3333535 0  240413.173949154 577324.4280286073 0  240574.037899 606283.0066440001 0  263857.9179445 593618.2891454998 0  264153.4303974913 593343.916675058 0  242042.1833925 604946.7714812499 0  241650.3099635 605465.51584375 0  244613.6985165 572229.6575395 0  236631.8579695 598822.2989335 0  235140.029068 600860.444221 0  241767.7287175 604874.0596705 0  242140.15174975 604817.0853906251 0  234781.8558075 600573.1668855001 0  242091.167571125 604881.9284359375 0  234519.3558565 600373.162719 0  254604.8337712102 583989.0014118921 0  250699.5846056537 594617.3297041012 0  250540.4796469513 602258.2940568649 0  248483.7490186612 580334.7345534252 0  258549.2190328319 577893.951823392 0  257067.0067473103 590016.5327808241 0  243285.0921999099 596333.923437875 0  248333.1386145258 589098.0389905117 0  256142.8445072741 595883.3911551933 0  260245.1368072523 583315.2785712298 0  253472.3380211276 578932.2908163272 0  246432.3347504817 599884.5019511909 0  261555.9240922556 588041.186709004 0  247293.1100123104 605823.8307887657 0  246458.2798550911 593168.8646574575 0  252840.0183145193 588226.5564648228 0  249828.2874404451 584740.7888937403 0  255409.5660975206 600458.8956828594 0  260819.9733392385 574219.403683011 0  252584.2262054711 605722.6603825617 0  254049.8830611471 592547.4852571967 0  250015.4356193061 598425.2225922942 0  245872.072249477 577604.9761853142 0  262002.1583249522 579753.4663046852 0  257732.6630933878 586227.970805314 0  250242.5556457866 577017.3316409125 0  244921.6453001869 581816.6358421432 0  256520.3890639471 580904.824006648 0  240779.0970645865 599524.6679555867 0  257100.1829219198 574459.5922545703 0  239912.2630002034 595231.1172704464 0  244703.0875078634 590068.6945953515 0  242549.5490268674 592874.3693043783 0  251586.0465921376 581796.2215047925 0  246643.189997516 596527.447801719 0  251049.7658069622 591057.6752245198 0  253014.5731561695 596998.6601086652 0  238680.2197353724 584542.2309791476 0  259715.365803504 591937.1938619445 0  254097.157218761 575731.4494927844 0  246806.6408589328 586139.0877599345 0  246136.1179750556 602959.471719323 0  253520.7033332401 602835.180253843 0  244125.4295793909 607538.9817227355 0  252546.8895354472 599881.3279113505 0  258289.0983523553 600397.640191779 0  247518.7952199645 583037.3718217331 0  263140.3959879661 582529.2228421422 0  262894.8586894067 585442.3590432997 0  256968.6320599076 593040.7691844478 0  243573.0187527719 600218.2795730785 0  258888.5766127351 595139.7745218446 0  262588.7569809347 576734.8569237856 0  259318.4257992262 580601.2540325444 0  249963.3812725965 607065.7205847671 0  257494.5307999607 583482.5893534871 0  258906.4757205145 572278.8089438241 0  237751.446593475 587300.5805003279 0  255142.4708720699 604956.7580261135 0  258485.4978753244 597756.9250383095 0  255516.7820591553 587791.39641967 0  239758.4692108706 601926.8203218657 0  255873.0092222999 577739.5085867504
[...]
<PointData  Scalars="f_32-0"> 
<DataArray  type="Float64"  Name="f_32-0"  format="ascii">1.5478897623633288e+07  1.5516005041395215e+07  1.5556359971694294e+07  1.5588220283140345e+07  1.5607855305853140e+07  1.5636517976900145e+07  1.5648710478850940e+07  1.5662338593104305e+07  1.5661247486863868e+07  1.5660885332559654e+07  1.5665410549690787e+07  1.5662854419560183e+07  1.5660182272221820e+07  1.5695810988418028e+07  1.5734102263112944e+07  1.5775156430259192e+07  1.5842098044281974e+07  1.5930790103069600e+07  1.5945233187966961e+07  1.5956926822600914e+07  1.6023818948450338e+07  1.6080214543198477e+07  1.6150446860782275e+07  1.6193698669924889e+07  1.6214271540337840e+07  1.6259860532336339e+07  1.6273898053349929e+07  1.6295604983265487e+07  1.6342132965503996e+07  1.6376495136542585e+07  1.6386682662642501e+07  1.6416244825113602e+07  1.6501837057490434e+07  1.6579258438313548e+07  1.6593751144880135e+07  1.6655293166182790e+07  1.6722155412235141e+07  1.6780609186430980e+07  1.6817939069669146e+07  1.6849023475947026e+07  1.6895194542622477e+07  1.6940868950461913e+07  1.6984476872319564e+07  1.7025702284520019e+07  1.7064058682173233e+07  1.7072201251567863e+07  1.7092878263012279e+07  1.7118226405538734e+07  1.7136742863640558e+07  1.7144874519355793e+07  1.7146641683172233e+07  1.7148307472040329e+07  1.7148019814154547e+07  1.7151083708536934e+07  1.7157919890569564e+07  1.7157392726003207e+07  1.7157433413859762e+07  1.7159945749282897e+07  1.7152626535650086e+07  1.7125605891712479e+07  1.7089371628306381e+07  1.7055300310549896e+07  1.6994164559687085e+07  1.6886164955949344e+07  1.6861853431595113e+07  1.6945909563588914e+07  1.6974448472810056e+07  1.6982123965840492e+07  1.6989995550861362e+07  1.7002439035745710e+07  1.7019932488930233e+07  1.7083336341627318e+07  1.7103751225709893e+07  1.7113269998988364e+07  1.7115177137852784e+07  1.7104885964370597e+07  1.7073991258835793e+07  1.7037536608720679e+07  1.6986944840068590e+07  1.6975614296053216e+07  1.6977568169997655e+07  1.6982793182581298e+07  1.6984393346257325e+07  1.6981973815117642e+07  1.6980741796301242e+07  1.6978433399325594e+07  1.6968210129095059e+07  1.6940732343985401e+07  1.6897913226205040e+07  1.6885038705415431e+07  1.6910776804393645e+07  1.6922768462209567e+07  1.6926673344743714e+07  1.6923498935051791e+07  1.6924929105772182e+07  1.6921613227362771e+07  1.6920962381095197e+07  1.6916313757917471e+07  1.6914049218657538e+07  1.6908481577821143e+07  1.6862102943324190e+07  1.6808674975798231e+07  1.6729772059571650e+07  1.6641833038665656e+07  1.6518524569135176e+07  1.6346957760962578e+07  1.6138039307900693e+07  1.5931826380749302e+07  1.5774252792896230e+07  1.5689734140033949e+07  1.5681599759123992e+07  1.5767566288843337e+07  1.5868348205856904e+07  1.6046513701182406e+07  1.6149722747421432e+07  1.6190962177329298e+07  1.6227589646734167e+07  1.6268498566117238e+07  1.6297135822496790e+07  1.6317107314514516e+07  1.6321523001397995e+07  1.6321566008905455e+07  1.6314763998172091e+07  1.6296537740695322e+07  1.6290170374949321e+07  1.6303898652396258e+07  1.6312550893065751e+07  1.6315287373874299e+07  1.6315288658132158e+07  1.6306367915745046e+07  1.6248790958071355e+07  1.6229298320117341e+07  1.6194835630314102e+07  1.6173787335202439e+07  1.6143529662943574e+07  1.6110187938184211e+07  1.6072630782347849e+07  1.6045225491439177e+07  1.6035750814656762e+07  1.6038606214160474e+07  1.6042028132303104e+07  1.6041592115240142e+07  1.6042924835273502e+07  1.6043652188147817e+07  1.6043562430263316e+07  1.6037574938703522e+07  1.6016266216031114e+07  1.5952041954702998e+07  1.5811610627139311e+07  1.5700834288021544e+07  1.5633469428788494e+07  1.5602895997764837e+07  1.5591366214354932e+07  1.5550411964558467e+07  1.5522770667122025e+07  1.5501193604214914e+07  1.5493853866216451e+07  1.5470457809013389e+07  1.5446150727053307e+07  1.5451332840901542e+07  1.5440344146176934e+07  1.5415599204715962e+07  1.5360099207597608e+07  1.5290925410716960e+07  1.5236349341236401e+07  1.5182162368620424e+07  1.5155433949474409e+07  1.5144143657045411e+07  1.5143353170341510e+07  1.5144717723387949e+07  1.5151848372346185e+07  1.5157938658927318e+07  1.5158826700952431e+07  1.5158544246998442e+07  1.5161618558921555e+07  1.5165040791485781e+07  1.5174844050571788e+07  1.5187962065817306e+07  1.5198936325508293e+07  1.5196760792026646e+07  1.5196919672276815e+07  1.5199998393432986e+07  1.5202211531679731e+07  1.5199604379965801e+07  1.5196193644089181e+07  1.5192519359357340e+07  1.5185750244175976e+07  1.5172898228311753e+07  1.5150036733005026e+07  1.5110056419239057e+07  1.5069605640821297e+07  1.5043595851931535e+07  1.5039492725290490e+07  1.5056513435786834e+07  1.5090029422964616e+07  1.5143963696155405e+07  1.5201757956173070e+07  1.5280798734236527e+07  1.5382278789771013e+07  1.5449827615808483e+07  1.5664802753914015e+07  1.5947937256153574e+07  1.7028585512816578e+07  1.7142166671363465e+07  1.7157077008647189e+07  1.6920460963192038e+07  1.7112464508703850e+07  1.5448930485439852e+07  1.6897491985531323e+07  1.6925896872197021e+07  1.6306979946723267e+07  1.6295222340025019e+07  1.6042081691184837e+07  1.6043500128149522e+07  1.7057086451941181e+07  1.5664806248890230e+07  1.5663325379727304e+07  1.7012326466496330e+07  1.7043086493684985e+07  1.5448931088596830e+07  1.6887171468317937e+07  1.6925898953560200e+07  1.6983328698934149e+07  1.7003533495077234e+07  1.6924338067314137e+07  1.7007990267173849e+07  1.6924319136352915e+07  1.4968643294948766e+07  1.5661683640472054e+07  1.6451492853648206e+07  1.5369539262498111e+07  1.4991632042931508e+07  1.5065056082930531e+07  1.6457604904500404e+07  1.5316234327405158e+07  1.5807149103449820e+07  1.5106662405585406e+07  1.5096279625898575e+07  1.6429176323408164e+07  1.5379747261087086e+07  1.6878596810233392e+07  1.5817282905009655e+07  1.4956252723316161e+07  1.5305777228069421e+07  1.6113554451521460e+07  1.5124622116772328e+07  1.6707968813145172e+07  1.5397456214114286e+07  1.5992029153803414e+07  1.5470324905441120e+07  1.5005696624170132e+07  1.4900561200066831e+07  1.5232542903335873e+07  1.5612433945485944e+07  1.5031655817426564e+07  1.6804998938958775e+07  1.5098668917340476e+07  1.6626393501605909e+07  1.5664403901005223e+07  1.6220938377803471e+07  1.5222163122513352e+07  1.6152658502819214e+07  1.5240795372784931e+07  1.5814321980567491e+07  1.6092653376749229e+07  1.5535732259514432e+07  1.5084238070346924e+07  1.5451865613626577e+07  1.6717789578306060e+07  1.6434518796133248e+07  1.7054663283998061e+07  1.6090821222260613e+07  1.6205985052536324e+07  1.5466057768514026e+07  1.5160909020979462e+07  1.5330906925496206e+07  1.5495282345914818e+07  1.6688782799964478e+07  1.5827790381870143e+07  1.5053180199381961e+07  1.5015995822340038e+07  1.6857089228636321e+07  1.4983910939829651e+07  1.5163391858672582e+07  1.6208195709282352e+07  1.6595806704796975e+07  1.6025548327065526e+07  1.4790412372697182e+07  1.6925744964732368e+07  1.5021899396295294e+07  1.5556950919434447e+07  1.5826050714459794e+07  1.5554458292975120e+07  1.5610560380194923e+07  1.5095099769147487e+07  1.5487748683833027e+07  1.5042552767827610e+07  1.5232777017810218e+07  1.5363942126500439e+07  1.5191018806806160e+07  1.5134280672917688e+07  1.7008600326637141e+07  1.6694073004273595e+07  1.5137793391069239e+07  1.6923690254214324e+07  1.6449158634187050e+07  1.6309994872512726e+07  1.6795956640764847e+07  1.6009679016049633e+07  1.5589127764386609e+07  1.5897326223830493e+07  1.6337904539873814e+07  1.5192248972887306e+07  1.6638545601330834e+07  1.4872134279706322e+07  1.5649617227788121e+07  1.5175398230110364e+07  1.5349850323541535e+07  1.5839792978971800e+07  1.6661297798996139e+07  1.5508609538375774e+07  1.6163672246022571e+07  1.5543391841387963e+07  1.6443619796406748e+07  1.5040468314428497e+07  1.5485866050885797e+07  1.5344591698733494e+07  1.6778414833421376e+07  1.5892612608314924e+07  1.5067877870467331e+07  1.6790273047669902e+07  1.5457979708464075e+07  1.6895734036840618e+07  1.5125446890102491e+07  1.7013998245301686e+07  1.7007343820996888e+07  1.5562474820625136e+07  1.5644255470309479e+07  1.7010626091129739e+07  1.7064204755016044e+07  1.6862385401185554e+07  1.6897808335537445e+07  1.6282290078484023e+07  1.5136899181570400e+07  1.6773309543990538e+07  1.6613561246775433e+07  1.5586651444315722e+07  1.5643342210528210e+07  1.5570016761244103e+07  1.7051876306845192e+07  1.7005934226211250e+07  1.5762511386783475e+07  1.6959678777599283e+07  1.6946447889164940e+07  1.6977387704803191e+07  1.7068841575956233e+07  1.5692534797351431e+07  1.5422789338943329e+07  1.6286798432867786e+07  1.5158915227573389e+07  1.5610697875098977e+07  1.5035106120127168e+07  1.6245332033593616e+07  1.7134176068514857e+07  1.6160270861465408e+07  1.6295466932648832e+07  1.6872225609977275e+07  1.5821324712025492e+07  1.5187907405803502e+07  1.6289486520096136e+07  1.5137670762092853e+07  1.5499822112802833e+07  1.6894855121553194e+07  1.6852904178825781e+07  1.6020429098416595e+07  1.7134076026443575e+07  1.5265190136846524e+07  1.6926949148522325e+07  1.6033794061170084e+07  1.5183348460574364e+07  1.5144688309725912e+07  1.5117115475280864e+07  1.6365705687169407e+07  1.6832195201415189e+07  1.6793238521796532e+07  1.6215531109526535e+07  1.7036661238050107e+07  1.5877682096728016e+07  1.5445992102411848e+07  1.5445955860789586e+07  1.5177588659419201e+07  1.7010213806890778e+07  1.7020669156256739e+07  1.7024870862192344e+07  1.6597004474756429e+07  1.6825427471239675e+07  1.7030518918065019e+07  1.6959690467796244e+07  1.6180741179568389e+07  1.7155497306825437e+07  1.7153685817210197e+07  1.5921391181941781e+07  1.5048484054317504e+07  1.6031434489829428e+07  1.6853465806257889e+07  1.5717290602574341e+07  1.6091051064969964e+07  1.7140113762920346e+07  1.5967137167397393e+07  1.6419832374986464e+07  1.5285679755609700e+07  1.5593830143087413e+07  1.5569760913693855e+07  1.5619056109192070e+07  1.6913409097999055e+07  1.5642959600289611e+07  1.5659507121404894e+07  1.5624659645977493e+07  1.5655437781414982e+07  1.5595540244468993e+07  1.5193195644163981e+07  1.5185108383529413e+07  1.5635032035419283e+07  1.5553908988571879e+07  1.6320177261172539e+07  1.6319750547956131e+07  1.7149136207845412e+07  1.5966492483941246e+07  1.5749143164567584e+07  1.5573627536882056e+07  1.5645192579902293e+07  1.5700901268028578e+07  1.5818585571674449e+07  1.5724712508712323e+07  1.5803603759224506e+07  1.5967495106575608e+07  1.5835766260620419e+07  1.5919103036946649e+07  1.6061967126940172e+07  1.5989190561216529e+07  1.5716516041300476e+07  1.5833672009738201e+07  1.5324231579060318e+07  1.5360660013975363e+07  1.5314119017967375e+07  1.5264659198108068e+07  1.5279098143831166e+07  1.5208118163622325e+07  1.5251185018012237e+07  1.5223548521078259e+07  1.5144496431262452e+07  1.5135280601593759e+07  1.5080571828998484e+07  1.5054941795320597e+07  1.5060312245350579e+07  1.5036392229479590e+07  1.5046061611399500e+07  1.5046307851570938e+07  1.5039046916167550e+07  1.5034711485011803e+07  1.5073232833602639e+07  1.5046665653290125e+07  1.5081970324758748e+07  1.5061083555660978e+07  1.5115675516599823e+07  1.5201150640738023e+07  1.5146157634380573e+07  1.4840391391596409e+07  1.5021256194776375e+07  1.4941451466999935e+07  1.4912651215861890e+07  1.5789395586036414e+07  1.5725283746480223e+07  1.5612679238179564e+07  1.5731433089075046e+07  1.6277898178322293e+07  1.6583141760135973e+07  1.6376161433611736e+07  1.6543568242587226e+07  1.5421484392755685e+07  1.5302321645664612e+07  1.5355816943493279e+07  1.5424744175052509e+07  1.4996463926736021e+07  1.5001414225311831e+07  1.5036112142917365e+07  1.4994616231126525e+07  1.4998011988720054e+07  1.5009840582457375e+07  1.5312678416539876e+07  1.5267698466676885e+07  1.4892521146767031e+07  1.5017236207375046e+07  1.5073250505285434e+07  1.6549575306589060e+07  1.6345999968238410e+07  1.5245742035861636e+07  1.5359789301434582e+07  1.5380387817456983e+07  1.5252953287941502e+07  1.5392583056174437e+07  1.5395369965093907e+07  1.5616866550935481e+07  1.5803535372502953e+07  1.5719822943133604e+07  1.5047930744281724e+07  1.5137198759653460e+07  1.5212610003436286e+07  1.5051041784980064e+07  1.5147682668780709e+07  1.5060740088297358e+07  1.5161988396783117e+07  1.5068889799505202e+07  1.5051150231569786e+07  1.5105976867119763e+07  1.5158069872794043e+07  1.6202781754409596e+07  1.6572122816431710e+07  1.6353086636434982e+07  1.6616291782535313e+07  1.6804751196233489e+07  1.6008640596727328e+07  1.5651313543419950e+07  1.5989502973567510e+07  1.5842718798926806e+07  1.4846797186672084e+07  1.4968053317049466e+07  1.5065475493243257e+07  1.4888730297276283e+07  1.6269017157638131e+07  1.6077090817248892e+07  1.6161038622930221e+07  1.5982785990477590e+07  1.5107226085555928e+07  1.5089714161690075e+07  1.5312564601416184e+07  1.5420911372842170e+07  1.5216826945594484e+07  1.6038169099576566e+07  1.5867796480203934e+07  1.6156405598086158e+07  1.5881320836882781e+07  1.5534732942343127e+07  1.5414937717295999e+07  1.5410025502137259e+07  1.5474828069839125e+07  1.5443774717970071e+07  1.5491325590512631e+07  1.5057346966126347e+07  1.5013964364151398e+07  1.5005256834902653e+07  1.5009001408041112e+07  1.5028573191278417e+07  1.5019214854566706e+07  1.4930645733476393e+07  1.4798918192577336e+07  1.4993716936105348e+07  1.4779024263141099e+07  1.5128662588007195e+07  1.5226378376060564e+07  1.5300436624937376e+07  1.5292730442243738e+07  1.5167194750875933e+07  1.5247267677996188e+07  1.5538806136982018e+07  1.5717590385161381e+07  1.5615902104874957e+07  1.5548684084852351e+07  1.5019865589542290e+07  1.5016787269100567e+07  1.5022061579370266e+07  1.5055568740272298e+07  1.5084039575496407e+07  1.5133055463568294e+07  1.5046496729586123e+07  1.5064858410648515e+07  1.5120255588119863e+07  1.5133385775459317e+07  1.5106133424538027e+07  1.5563423183158262e+07  1.5580585791361434e+07  1.5765379641350534e+07  1.5819447691169798e+07  1.6187692830441626e+07  1.5153566744930590e+07  1.5233590822431074e+07  1.5991950478263402e+07  1.5382913237272028e+07  1.5156275231163176e+07  1.5147859533873629e+07  1.5342928009278147e+07  1.5924607504542433e+07  1.5853914713566938e+07  1.6047220759082027e+07  1.6035708230267432e+07  1.5501317675325556e+07  1.5328040272180624e+07  1.5050723813874904e+07  1.5109670641625218e+07  1.5100407650812387e+07  1.5335038367870649e+07  1.5479542367382325e+07  1.6519089112255441e+07  1.6672001124061469e+07  1.6265364240367878e+07  1.6569550637396667e+07  1.6373082101285199e+07  1.6196946747971741e+07  1.5949893228649292e+07  1.6048716558741093e+07  1.5482196663543532e+07  1.5109433277870780e+07  1.5230086086590353e+07  1.5649611660119750e+07  1.5049204563994465e+07  1.5024081136777574e+07  1.5051187357473927e+07  1.5033511371220998e+07  1.5048119960072087e+07  1.4889866110607976e+07  1.4894717354587635e+07  1.4792142363994367e+07  1.5387054983210048e+07  1.5763189231782356e+07  1.5823592246223852e+07  1.5872716136117021e+07  1.5895760688406803e+07  1.5527024117449246e+07  1.5477607567861564e+07  1.5550210470295653e+07  1.5116531862306204e+07  1.5289760248455483e+07  1.5292418257258795e+07  1.5355029687210103e+07  1.5314891294364084e+07  1.5159815875176754e+07  1.5153603593651632e+07  1.5009578111529201e+07  1.6479070056203341e+07  1.5025489353173235e+07  1.5411928927976646e+07  1.5473247510189896e+07  1.5676474849528084e+07  1.6032065487304868e+07  1.5923023440482967e+07  1.5048256118510211e+07  1.5087220750260510e+07  1.5125737299530046e+07  1.5754340056836132e+07  1.5026935084746148e+07  1.5897783425749572e+07  1.5190430569210870e+07  1.5122494769474385e+07  1.5940140582688386e+07  1.4854636494318120e+07  1.5758807872586003e+07  1.4992607871577544e+07  1.4990092571943976e+07  1.5007707073015377e+07  1.4992603063263875e+07  1.5019367243049089e+07  1.5383170033276999e+07  1.5118217046039432e+07  1.5128676291713668e+07  1.5124860874480117e+07  1.6463501839648705e+07  1.5094477899204912e+07  1.4898128489466788e+07  1.4917004775879975e+07  1.4975301925432684e+07  1.5094636710583083e+07  1.5877694690385403e+07  1.5922177171395015e+07  1.5018927271858949e+07  1.5023322626338700e+07  1.4844141824985916e+07  1.4813934567905126e+07  1.5176008208334846e+07  1.5545567910360927e+07  1.5227508933409380e+07  1.5306507191011380e+07  1.5171259023969762e+07  1.5353985077042658e+07  1.5098583593593176e+07  1.5081903312502906e+07  1.5096469998906497e+07  1.5092020434184538e+07  1.6012624421127509e+07  1.5003922440680921e+07  1.5017904075979020e+07  1.5029372793896014e+07  1.4830537652374148e+07  1.4809118749440441e+07  1.4830864294450128e+07  1.4819386861750182e+07  1.5034799774833633e+07  1.5028078999481579e+07  1.5035682711990489e+07  1.5006972270231299e+07  1.6250921471244805e+07  1.6326425805331029e+07  1.6413435532175306e+07  1.5987968127709694e+07  1.5911914598461019e+07  1.4942420137382075e+07  1.5351729574439656e+07  1.5319369406217914e+07  1.5380043598842138e+07  1.5585841923811736e+07  1.5459914579251638e+07  1.5497915739094738e+07  1.5008742315234978e+07  1.5024324130367963e+07  1.5050386511331728e+07  1.5479403892043790e+07  1.5516622474027183e+07  1.5483849169248870e+07  1.5447004503228091e+07  1.5780462295189127e+07  1.5029644381188480e+07  1.5022094652067881e+07  1.5026740188430537e+07  1.5869295715921873e+07  1.5859797247121606e+07  1.5860503285236696e+07  1.5216095824660849e+07  1.5256106507175243e+07  1.5289959479818182e+07  1.5101352817140831e+07  1.5039552938961441e+07  1.5035013967253564e+07  1.5942899818978388e+07  1.6011537341876492e+07  1.5974169911470762e+07  1.5931462186866444e+07  1.5933374974540319e+07  1.5952066208800143e+07  1.5907327981960392e+07  1.5314440264023848e+07  1.5030840724786678e+07  1.4805270359676646e+07  1.5828557246155789e+07  1.5389130661929397e+07  1.5383409457018139e+07  1.4998803188716888e+07  1.4994624653130291e+07  1.5000178677360220e+07  1.5006502625982054e+07  1.5004189446652258e+07  1.5018012561689941e+07  1.4964755707491582e+07  1.4882329638242815e+07  1.4976985299635654e+07  1.5294920962441618e+07  1.5427562281888459e+07  1.5049921627865545e+07  1.5095364253027245e+07  1.5100150956308356e+07  1.5132804044098215e+07  1.5161225447838433e+07  1.5093528326193383e+07  1.5035454538817549e+07  1.5045399273661496e+07  1.5196673775432875e+07  1.6434135761894006e+07  1.4858598043772556e+07  1.4924349994289691e+07  1.4953302244345497e+07  1.6016040583320213e+07  1.6007807416497992e+07  1.5957151115256190e+07  1.5440802865545902e+07  1.5510909929973194e+07  1.5442791288272779e+07  1.5281771941801377e+07  1.5514704706300037e+07  1.5549464189586200e+07  1.5064142301818445e+07  1.5091501462794546e+07  1.5657822207411397e+07  1.5615658765006140e+07  1.5715444640265184e+07  1.5103905941854348e+07  1.5025072521594290e+07  </DataArray> 
</PointData> 
</Piece>
</UnstructuredGrid>
</VTKFile>