<?xml version="1.0"?>
<VTKFile type="UnstructuredGrid"  version="0.1"  >
<UnstructuredGrid>
<Piece  NumberOfPoints="784" NumberOfCells="1320">
<Points>
<DataArray  type="Float64"  NumberOfComponents="3"  format="ascii">266913.131276 586512.314988 0  266738.13716 587762.325998 0  266363.132677 589012.328643 0  266175.641078 590169.601714 0  265666.575631 591040.7699119999 0  264875.64001 591687.766419 0  264900.636161 591845.049083 0  266088.14152 592012.3229499999 0  265561.959259 592661.17101 0  264288.136855 593037.368683 0  263865.194033 593999.8486949999 0  263850.641856 593236.729596 0  263625.634872 592756.525286 0  262689.574249 593299.848918 0  262475.636737 594003.0907310001 0  261934.554452 594340.929792 0  261725.631329 594932.094409 0  261729.256443 595728.498809 0  262138.136044 595012.330523 0  262288.141035 596262.333669 0  261488.994028 597511.480605 0  261234.15567 598316.338928 0  260815.635063 599014.863821 0  261400.643658 599389.7367680001 0  261322.963374 600022.185065 0  261119.455248 600931.061306 0  261607.436504 601293.0629359999 0  260807.446929 602089.899812 0  260025.642878 602988.868697 0  259613.135827 603937.3854499999 0  259050.643123 604100.987861 0  258411.880065 603988.6335979999 0  257764.357469 604449.872569 0  257971.239668 605320.429125 0  258041.396867 605740.635381 0  257188.143339 606987.394312 0  256038.141198 608112.3554550001 0  254788.141633 609087.4026939999 0  253588.140656 609812.362881 0  252338.135706 609737.4048949999 0  251088.138116 609787.404055 0  249963.12851 610287.399466 0  248613.130524 610462.365857 0  247363.132198 610687.407659 0  246113.130532 610837.411551 0  245832.347438 610918.209918 0  245016.946433 610958.5639439999 0  244313.129646 610762.372259 0  244400.622144 611378.093316 0  243939.669208 612460.8930899999 0  242960.649733 611984.892792 0  242170.381438 611919.647351 0  241888.122919 611112.375656 0  241393.380757 610467.6456149999 0  240594.157528 611306.369822 0  240525.621947 610804.648112 0  240363.123632 610512.3745050001 0  239113.123247 610262.374278 0  239813.12126 609037.412459 0  240588.122952 607812.368199 0  241013.119545 606625.9534560001 0  241454.373249 605724.888025 0  242238.120107 604687.3993 0  243088.121248 603462.362766 0  242860.319451 603007.3932640001 0  241563.116617 603812.361344 0  241778.400913 604327.642217 0  242059.837234 604824.879102 0  241475.620201 604923.2402390001 0  241462.182234 605449.881372 0  240906.219606 605674.888222 0  240241.856192 606891.125066 0  239891.734044 607841.012479 0  239048.653431 608724.889805 0  238118.054545 608974.895967 0  238888.111029 607337.406468 0  239738.119992 606212.362729 0  240288.12044 605687.4075229999 0  240380.212307 604729.521696 0  239347.309632 604603.204501 0  238888.112036 604387.408787 0  237913.11173 604687.401386 0  236784.172023 604499.882783 0  236883.408793 603717.08334 0  236154.933927 603595.565605 0  235688.103943 602912.369264 0  235763.108033 601662.366516 0  236363.110805 600412.35884 0  236738.107995 599162.356577 0  236525.607944 598482.2412899999 0  236138.109208 599362.357613 0  235725.063048 600325.4466510001 0  235091.948926 601408.5220979999 0  235188.10921 600312.366344 0  234375.602405 600833.9674270001 0  234663.109308 599912.358011 0  234138.105122 600062.365644 0  233955.307245 599029.561063 0  233338.103791 598387.401556 0  233988.09795 597862.356384 0  235138.101489 596637.3947750001 0  235563.1039 595387.392428 0  236513.103639 594212.356312 0  237163.10684 592987.3929869999 0  238313.103031 591862.3515540001 0  239513.107028 590812.3512640001 0  240638.102135 589787.387271 0  241463.109549 588587.378486 0  242294.489816 587443.735215 0  242913.101099 586512.341804 0  243544.066915 585474.859604 0  243040.448415 585184.975583 0  242438.10214 585337.38015 0  241313.102353 586562.339499 0  240538.107104 587787.382449 0  240114.641085 588588.939407 0  239388.100256 589437.382238 0  238188.104456 590512.346358 0  236938.100507 591362.349798 0  235813.10453 592537.396388 0  234864.502938 593178.7753880001 0  234463.097651 592862.357267 0  235113.0965 591662.3545979999 0  235713.101522 590412.346099 0  235777.688431 589976.7582779999 0  234943.583145 590706.265132 0  234462.482256 591490.2841159999 0  233801.497784 592112.940187 0  233388.099101 591787.394208 0  234013.093099 590437.393065 0  234776.217248 587148.7548100001 0  235163.093726 586562.3486189999 0  235313.098918 585483.229012 0  235250.59732 584662.298153 0  235588.093896 583337.379493 0  236329.432041 582199.858992 0  237188.096234 581462.3349939999 0  237463.088521 580212.335511 0  238350.592558 579057.652616 0  238591.415797 578574.847681 0  238313.094106 577612.328905 0  239229.696732 577695.769664 0  240195.161018 577513.008613 0  240614.996733 577149.8518770001 0  240663.091715 577412.332622 0  240288.092486 578662.334085 0  239942.357258 579508.095811 0  240438.100019 580212.3334220001 0  241338.095553 580387.375355 0  241238.099828 579137.369157 0  241788.097003 577887.370889 0  241983.554649 577241.9220939999 0  242054.178239 576927.8105029999 0  242588.100699 575737.366175 0  243149.324833 574898.583978 0  243695.278626 573919.517981 0  244268.494418 573724.8454239999 0  244995.134063 573930.2767810001 0  245417.314363 573391.601898 0  243450.599125 571859.479773 0  245776.797908 572599.8353060001 0  246779.639852 572973.285167 0  248034.741935 573186.082054 0  249413.10651 573162.3205520001 0  250496.922226 573271.1521899999 0  251613.105126 573237.3551319999 0  252421.824577 572846.032906 0  253256.245022 572580.4733130001 0  253739.471933 571960.9547369999 0  254174.511864 572149.8346569999 0  254484.944333 571684.194807 0  254384.108649 570891.346712 0  254344.002752 570218.26407 0  255025.609604 570829.0294979999 0  255715.005913 570489.264586 0  256218.846343 570774.828355 0  256834.349083 570508.5908 0  257390.092515 570014.308325 0  257624.431042 568493.478911 0  259355.811717 569380.021819 0  260033.372814 569617.066669 0  262679.741751 570320.699974 0  263289.115756 569524.817815 0  263463.114338 570512.301061 0  264638.198419 570687.3443539999 0  265058.220065 571334.378467 0  265447.561421 572077.90485 0  265488.125257 573137.3446020001 0  265131.937715 573963.293593 0  265432.389648 575093.068786 0  265638.122314 576338.029955 0  265750.630817 577371.8281319999 0  265738.570663 578561.9098850001 0  265875.630866 579139.630549 0  266213.129247 579862.311842 0  266563.130472 581112.314509 0  266238.135356 582362.310259 0  265938.12863 583612.320897 0  265738.131342 584762.3210189999 0  266875.638633 585365.358768 0  264018.7239399826 593650.4646671159 0  262236.3944351029 595831.1252656333 0  241846.246678 605206.1436625 0  240200.622106 608424.8903290001 0  240943.4862974102 610939.7757535663 0  236550.6094 599787.3577085 0  238528.1212051503 608102.9081793013 0  244413.4891967989 572609.5960859474 0  236382.0474488751 598808.3067022427 0  235369.601910944 600933.5380148316 0  235413.099011 591037.3503485 0  235446.2251831186 590266.6553871984 0  240475.5921005 578037.3333535 0  240413.173949154 577324.4280286073 0  240574.037899 606283.0066440001 0  263857.9179445 593618.2891454998 0  264153.4303974913 593343.916675058 0  242042.1833925 604946.7714812499 0  241650.3099635 605465.51584375 0  244613.6985165 572229.6575395 0  236631.8579695 598822.2989335 0  235140.029068 600860.444221 0  241767.7287175 604874.0596705 0  242140.15174975 604817.0853906251 0  234781.8558075 600573.1668855001 0  242091.167571125 604881.9284359375 0  234519.3558565 600373.162719 0  254604.8337712102 583989.0014118921 0  250699.5846056537 594617.3297041012 0  250540.4796469513 602258.2940568649 0  248483.7490186612 580334.7345534252 0  258549.2190328319 577893.951823392 0  257067.0067473103 590016.5327808241 0  243285.0921999099 596333.923437875 0  248333.1386145258 589098.0389905117 0  256142.8445072741 595883.3911551933 0  260245.1368072523 583315.2785712298 0  253472.3380211276 578932.2908163272 0  246432.3347504817 599884.5019511909 0  261555.9240922556 588041.186709004 0  247293.1100123104 605823.8307887657 0  246458.2798550911 593168.8646574575 0  252840.0183145193 588226.5564648228 0  249828.2874404451 584740.7888937403 0  255409.5660975206 600458.8956828594 0  260819.9733392385 574219.403683011 0  252584.2262054711 605722.6603825617 0  254049.8830611471 592547.4852571967 0  250015.4356193061 598425.2225922942 0  245872.072249477 577604.9761853142 0  262002.1583249522 579753.4663046852 0  257732.6630933878 586227.970805314 0  250242.5556457866 577017.3316409125 0  244921.6453001869 581816.6358421432 0  256520.3890639471 580904.824006648 0  240779.0970645865 599524.6679555867 0  257100.1829219198 574459.5922545703 0  239912.2630002034 595231.1172704464 0  244703.0875078634 590068.6945953515 0  242549.5490268674 592874.3693043783 0  251586.0465921376 581796.2215047925 0  246643.189997516 596527.447801719 0  251049.7658069622 591057.6752245198 0  253014.5731561695 596998.6601086652 0  238680.2197353724 584542.2309791476 0  259715.365803504 591937.1938619445 0  254097.157218761 575731.4494927844 0  246806.6408589328 586139.0877599345 0  246136.1179750556 602959.471719323 0  253520.7033332401 602835.180253843 0  244125.4295793909 607538.9817227355 0  252546.8895354472 599881.3279113505 0  258289.0983523553 600397.640191779 0  247518.7952199645 583037.3718217331 0  263140.3959879661 582529.2228421422 0  262894.8586894067 585442.3590432997 0  256968.6320599076 593040.7691844478 0  243573.0187527719 600218.2795730785 0  258888.5766127351 595139.7745218446 0  262588.7569809347 576734.8569237856 0  259318.4257992262 580601.2540325444 0  249963.3812725965 607065.7205847671 0  257494.5307999607 583482.5893534871 0  258906.4757205145 572278.8089438241 0  237751.446593475 587300.5805003279 0  255142.4708720699 604956.7580261135 0  258485.4978753244 597756.9250383095 0  255516.7820591553 587791.39641967 0  239758.4692108706 601926.8203218657 0  255873.0092222999 577739.5085867504
[...]
<PointData  Scalars="f_32-0"> 
<DataArray  type="Float64"  Name="f_32-0"  format="ascii">1.9840108370680809e+07  1.9909040722626749e+07  1.9991259452116273e+07  2.0057929799139656e+07  2.0104079248176202e+07  2.0171350018478740e+07  2.0191992180920787e+07  2.0205494424680665e+07  2.0206296169634484e+07  2.0225052991110668e+07  2.0231452725385498e+07  2.0231078240203027e+07  2.0248755410442725e+07  2.0371758310451701e+07  2.0451484886308350e+07  2.0524353654724736e+07  2.0625073023932990e+07  2.0738879376293268e+07  2.0752833192524426e+07  2.0770328923106253e+07  2.0862471329957396e+07  2.0936337511675503e+07  2.1022844776002631e+07  2.1071379048633754e+07  2.1094827164828636e+07  2.1146170059221443e+07  2.1161322066995222e+07  2.1187782852287397e+07  2.1242533285143569e+07  2.1281324526244082e+07  2.1293360314705893e+07  2.1327565629439253e+07  2.1415825485209484e+07  2.1488797170542959e+07  2.1502058266254392e+07  2.1559506746981885e+07  2.1622656342284504e+07  2.1678705305078622e+07  2.1715505363565717e+07  2.1748079023388620e+07  2.1795931783625145e+07  2.1841935863362726e+07  2.1885377977469739e+07  2.1926007810355403e+07  2.1963317433583081e+07  2.1971163068908375e+07  2.1991031156567410e+07  2.2015108615020040e+07  2.2032251111280061e+07  2.2039740463969409e+07  2.2041585058276579e+07  2.2043309686872892e+07  2.2043404598349866e+07  2.2046921070351768e+07  2.2053403361479271e+07  2.2052944219363064e+07  2.2053065916590240e+07  2.2055492365880385e+07  2.2049036270052645e+07  2.2025697411113113e+07  2.1995001575433280e+07  2.1966451262871221e+07  2.1915466447354045e+07  2.1823767092957541e+07  2.1798768594817001e+07  2.1862949621347398e+07  2.1887601108041402e+07  2.1894400126698025e+07  2.1901564581885699e+07  2.1913025014383093e+07  2.1929587796729073e+07  2.1990318215158399e+07  2.2010061526906762e+07  2.2019341246903069e+07  2.2021209388651423e+07  2.2011169785874531e+07  2.1981313655487016e+07  2.1946361098936912e+07  2.1897667122041371e+07  2.1884271339341257e+07  2.1884597864182394e+07  2.1887447711783737e+07  2.1888172871609420e+07  2.1885375512709603e+07  2.1883446596545022e+07  2.1880860528975382e+07  2.1870479164669797e+07  2.1843074462425414e+07  2.1799029577902135e+07  2.1782595479138501e+07  2.1805108649218071e+07  2.1816389261286654e+07  2.1820149719480321e+07  2.1817075546176080e+07  2.1818437062411349e+07  2.1815199368476961e+07  2.1814527943717331e+07  2.1809943041014563e+07  2.1807670961691942e+07  2.1802274949271232e+07  2.1757251504298616e+07  2.1705161129263513e+07  2.1629727393775303e+07  2.1547033022936575e+07  2.1434758799167782e+07  2.1281833159986291e+07  2.1090003525567237e+07  2.0883071442332279e+07  2.0675708250976846e+07  2.0489267420922339e+07  2.0228923307359032e+07  2.0115059323089480e+07  2.0121584624630392e+07  2.0282430788336381e+07  2.0419118886889342e+07  2.0476300332977928e+07  2.0526622433490995e+07  2.0581497225321423e+07  2.0618908237328440e+07  2.0644636601185232e+07  2.0650331434570033e+07  2.0650387231152754e+07  2.0641627706554513e+07  2.0618165874960471e+07  2.0609955738269176e+07  2.0627653425764456e+07  2.0638739927203625e+07  2.0642253118595958e+07  2.0642255709860202e+07  2.0630822801987261e+07  2.0556162403927360e+07  2.0530464592606805e+07  2.0485080055925030e+07  2.0457330187483076e+07  2.0417185591515783e+07  2.0372583072160114e+07  2.0322493102337576e+07  2.0287255900898583e+07  2.0276468950619794e+07  2.0281571746569123e+07  2.0287096216333888e+07  2.0286484419923265e+07  2.0288623643508904e+07  2.0289748231454320e+07  2.0289609740408342e+07  2.0280448481930993e+07  2.0248296960810158e+07  2.0153952739602339e+07  1.9944534067963056e+07  1.9761355016454119e+07  1.9641393909180947e+07  1.9585653733385503e+07  1.9564642360812280e+07  1.9490272271375518e+07  1.9440483219286978e+07  1.9401993626452148e+07  1.9389108793036088e+07  1.9348347365279872e+07  1.9304638757296033e+07  1.9306584150501151e+07  1.9293440285435680e+07  1.9255626678715233e+07  1.9168146427571889e+07  1.9060864286676392e+07  1.8979082871151615e+07  1.8901933420189463e+07  1.8868464072510749e+07  1.8861179522284631e+07  1.8867339641292792e+07  1.8874143616873633e+07  1.8893270081600085e+07  1.8905007462680079e+07  1.8906053923172127e+07  1.8908380917445101e+07  1.8918797415847618e+07  1.8930270993334249e+07  1.8955421550334789e+07  1.8981419308303554e+07  1.8998366097674396e+07  1.9008020346432321e+07  1.9020299048420690e+07  1.9072677963797174e+07  1.9078564099422902e+07  1.9081317768794887e+07  1.9090403816732768e+07  1.9092701813366503e+07  1.9095268896870799e+07  1.9097839392076381e+07  1.9101739575088914e+07  1.9112950415172286e+07  1.9129330454303224e+07  1.9149582844037842e+07  1.9192283278488301e+07  1.9227865689887486e+07  1.9275633193367898e+07  1.9343406617731929e+07  1.9421350787671722e+07  1.9537431596630361e+07  1.9693882368240204e+07  1.9791912119020998e+07  2.0231242410201993e+07  2.0758107181061611e+07  2.1944154599475332e+07  2.2039937532977950e+07  2.2052627130847190e+07  2.1822596139235090e+07  2.2018554512954153e+07  1.9304069071600992e+07  2.1793047339253362e+07  2.1819398470604219e+07  2.0631619288312297e+07  2.0616505441722814e+07  2.0287333479086168e+07  2.0289513590908423e+07  2.1965077811462086e+07  2.0231230348277692e+07  2.0230515431694005e+07  2.1930603863075819e+07  2.1956250576324537e+07  1.9304071324011035e+07  2.1787007702660602e+07  2.1819400426900987e+07  2.1895487843357019e+07  2.1923276331331294e+07  2.1817864953998346e+07  2.1926990485800892e+07  2.1817845975611500e+07  1.9561291909076955e+07  2.0808165738253225e+07  2.1462454956746947e+07  1.9328538600522362e+07  1.8906636862317931e+07  2.0184543023374368e+07  2.1435583523490123e+07  2.0429051679622173e+07  2.0796515511292093e+07  1.9446730126073349e+07  1.8899517000704970e+07  2.1449700736353561e+07  1.9962899411467195e+07  2.1812455933910869e+07  2.0942296745095357e+07  2.0075440512841724e+07  1.9849663605906177e+07  2.1130716475981064e+07  1.9023189124721788e+07  2.1635642452494930e+07  2.0532364395384047e+07  2.1106956294842869e+07  1.9347131596234474e+07  1.9134062383742213e+07  1.9768429742889855e+07  1.9000696550479300e+07  1.9722725816441875e+07  1.9134972910497122e+07  2.1729183160501320e+07  1.8879028055211768e+07  2.1546859082803354e+07  2.0762838441412404e+07  2.1212857990763802e+07  1.9385957164817929e+07  2.1217541396077298e+07  2.0475046375627134e+07  2.0908984398610666e+07  2.0340400890116878e+07  2.0364288714178182e+07  1.8762965027433295e+07  2.0192198290094581e+07  2.1688724063713118e+07  2.1415048701762009e+07  2.1962895328870390e+07  2.1163276705873787e+07  2.1128709344829522e+07  1.9723223693788528e+07  1.9400437725892264e+07  1.9710540245931037e+07  2.0523270013486061e+07  2.1651297054439440e+07  2.0701319821943056e+07  1.9083453764628097e+07  1.9125619698795836e+07  2.1775227490509436e+07  1.9466075249906432e+07  1.8982868720800292e+07  2.0500557896774590e+07  2.1519590975138988e+07  2.0930445121502932e+07  1.9945459775845889e+07  2.1838393629438750e+07  1.8776183701604076e+07  2.0190037342578981e+07  2.0011969823527016e+07  2.0740635787784293e+07  1.9605925675081108e+07  1.9251826078640159e+07  1.9924305188015938e+07  2.0240273599093802e+07  1.9125729428824306e+07  1.9181231629355896e+07  1.9733180257938866e+07  2.0001295334385976e+07  2.1916311888853647e+07  2.1648770815227892e+07  1.9663273379073784e+07  2.1856446178549558e+07  2.1452666049439013e+07  2.1356676850361209e+07  2.1704892159109343e+07  2.0231281707858056e+07  1.9994785026801545e+07  2.0939760749507863e+07  2.1279833146607358e+07  2.0121626998823646e+07  2.1619721873151351e+07  1.9812062856972951e+07  2.0748941498624630e+07  1.9070388665907234e+07  1.9188932178556550e+07  2.0965688098786004e+07  2.1594582924422111e+07  2.0686374582804576e+07  2.1199453276992194e+07  2.0495238286317054e+07  2.1377085041287396e+07  1.8991786665211227e+07  1.9406721996316213e+07  1.9531054327651974e+07  2.1679190598640013e+07  2.0979672399158265e+07  1.9251826578579731e+07  2.1694364963659402e+07  2.0623532408823922e+07  2.1803428461853106e+07  1.9084471356401239e+07  2.1931286849013872e+07  2.1926324464206140e+07  1.9510936969996355e+07  2.0207757558909453e+07  2.1929153788037669e+07  2.1965459095964812e+07  2.1765938730448112e+07  2.1792298463821810e+07  2.0599859330898166e+07  1.8887822813556742e+07  2.1731798854678508e+07  2.1522805210743066e+07  1.9555844913845375e+07  2.0191571979000270e+07  2.0081571439710088e+07  2.1963387291864093e+07  2.1925268837526090e+07  2.0568935914061636e+07  2.1870088220407311e+07  2.1875489575362150e+07  2.1901449883348465e+07  2.1968418688166086e+07  2.0027543690120004e+07  1.9270196938096926e+07  2.0605494859808050e+07  1.8939155928905889e+07  2.0147320063952371e+07  1.9197614282872781e+07  2.0551255934211083e+07  2.2032461667336009e+07  2.0437437434454929e+07  2.0616852097013943e+07  2.1772807697906625e+07  2.0057021521491110e+07  1.9004213222008716e+07  2.0609131747132283e+07  1.8834794672971159e+07  1.9400029351446688e+07  2.1790090352311101e+07  2.1749663687351774e+07  2.0251638902525648e+07  2.2031049790197439e+07  1.9024364913518187e+07  2.1830697445419062e+07  2.0894833425922543e+07  1.9089765034090709e+07  1.8885071857492406e+07  1.8828899900396127e+07  2.1273236041505568e+07  2.1778595899540022e+07  2.1739840181855589e+07  2.1107328880954672e+07  2.1950830627829503e+07  2.0694649032225996e+07  1.9301054935949855e+07  1.9300866647968106e+07  1.8971811186859753e+07  2.1928840747942705e+07  2.1937556112306859e+07  2.1941038745981470e+07  2.1505748147679362e+07  2.1727488483973902e+07  2.1932567521810584e+07  2.1866228053740464e+07  2.0462329532885436e+07  2.2051207135368459e+07  2.2049837972217917e+07  2.0110847400637057e+07  1.9125791801438678e+07  2.0270636068476535e+07  2.1799451020751059e+07  2.0439996203701086e+07  2.0343986299879033e+07  2.2035559243036531e+07  2.0171520257854071e+07  2.1341815782296952e+07  1.9566442956307247e+07  1.9569083129088763e+07  1.9525334171493817e+07  1.9615052304866757e+07  2.1807382210483070e+07  2.0185702847341120e+07  2.0210781221243195e+07  2.0156442349556837e+07  2.0207699183636077e+07  2.0089368005397804e+07  1.9075048198236320e+07  1.9038961521684013e+07  2.0261648275984861e+07  1.9496474599360429e+07  2.0648594381031387e+07  2.0648045451800052e+07  2.2045525125652067e+07  2.0963320336390670e+07  2.0731421346640542e+07  2.0233124651164453e+07  2.0115499320708867e+07  2.0110526486083154e+07  2.0107456575080756e+07  2.0091715985606890e+07  2.0083723901536375e+07  2.0193576604828157e+07  2.0092710071916055e+07  2.0132113990442112e+07  2.0297031145674147e+07  2.0207658578292523e+07  1.9822891623723950e+07  1.9993578838561352e+07  1.9112087902890466e+07  1.9170499546841115e+07  1.9096881800076444e+07  1.9021138371310409e+07  1.9043024340659603e+07  1.8938047214472275e+07  1.9000794990878664e+07  1.8959609357962728e+07  1.8853181617179900e+07  1.8850311885311458e+07  1.9120346383405481e+07  1.9138432483274147e+07  1.9130346796651833e+07  1.9166402483438682e+07  1.9140635745623525e+07  1.9209296545731593e+07  1.9198503171882693e+07  1.9155272947352797e+07  1.9253076833517831e+07  1.9214071249506321e+07  1.9267535343184967e+07  1.9237157473459486e+07  1.9310580832095649e+07  1.9429983246144775e+07  1.9350643245323010e+07  1.9658246222410645e+07  1.9352653164827928e+07  1.9506751948382303e+07  1.9690230829877779e+07  2.0932506246661287e+07  2.0847770943687871e+07  2.0779396209773950e+07  2.0876318075634222e+07  2.1320456028029323e+07  2.1564046818842012e+07  2.1407875414518066e+07  2.1540090931122508e+07  1.9508762492281027e+07  1.9240090146897797e+07  1.9236686039873365e+07  1.9349410624761391e+07  1.9030828871529579e+07  1.8957924447118126e+07  1.8861274851635758e+07  1.8996444168764669e+07  1.8827533638873316e+07  1.8947523018444892e+07  2.0281707970426723e+07  2.0357776472014874e+07  2.0062642777299829e+07  2.0206383679073222e+07  2.0088152397298034e+07  2.1494719995691612e+07  2.1331183573303018e+07  2.0444689056036565e+07  2.0322209403355945e+07  2.0584044348884035e+07  2.0277485094248455e+07  2.0559747890128702e+07  2.0462014906702224e+07  2.0672276201704320e+07  2.0850785398206256e+07  2.0769107075072132e+07  1.9245022743321542e+07  1.9412648548193641e+07  1.9582004786906254e+07  1.9280805679004196e+07  1.8899838852603789e+07  1.8997067004501183e+07  1.9137226453936752e+07  1.8759926073847212e+07  1.8809543835243713e+07  1.9066519705608606e+07  1.9001381133513093e+07  2.1272914996125616e+07  2.1567824390187196e+07  2.1390262917349890e+07  2.1602660996159006e+07  2.1757813275419272e+07  2.1094530840602770e+07  2.0811517701045621e+07  2.1070823765395291e+07  2.0956082240411624e+07  1.9999194169199690e+07  2.0152966236922875e+07  2.0092823522115301e+07  1.9937382448724423e+07  2.1273087943608526e+07  2.1132431104736663e+07  2.1128851718303647e+07  2.1022315311633214e+07  1.8954961160937600e+07  1.9048143554960258e+07  2.0497353616815448e+07  2.0523800326521758e+07  2.0391151661479633e+07  2.1140748251547664e+07  2.0989781245382041e+07  2.1237274303379752e+07  2.1013128777683940e+07  1.9459839115284462e+07  1.9261476429496408e+07  1.9257971231716044e+07  1.9358752759226851e+07  1.9306117438058328e+07  1.9385246231849406e+07  1.9246449144959129e+07  1.9096463333742835e+07  1.9116771892574221e+07  1.9048453684663486e+07  1.9191209621984214e+07  1.9169008601751566e+07  1.9622406745516624e+07  1.9851688964106895e+07  1.9883944359485023e+07  1.9775180155957785e+07  1.8819916108558640e+07  1.9036264904650386e+07  1.9091897466715340e+07  1.9104153583020017e+07  1.8875630616243031e+07  1.9005125654839210e+07  1.9702546321717918e+07  1.9886557507112194e+07  1.9648030031710166e+07  1.9555206294288736e+07  1.9123513170990005e+07  1.9308129417678151e+07  1.8919357660987936e+07  1.9184226298253234e+07  1.8803662356000781e+07  1.8939048455617033e+07  1.8795843025329344e+07  1.8923211051159721e+07  1.8882128611866217e+07  1.8913669055817809e+07  1.8843880355583340e+07  2.0717046943453059e+07  2.0636972349696413e+07  2.0868476453974288e+07  2.0862105652984761e+07  2.1204210128525201e+07  1.9312489357910212e+07  1.9245399908276647e+07  2.1089392019867379e+07  2.0607664568559945e+07  2.0352648765313514e+07  2.0297051632170055e+07  2.0550552355933692e+07  2.1020396006491020e+07  2.0923773816094421e+07  2.0279565299464360e+07  2.0260596523358896e+07  2.0444371714324351e+07  2.0187470343863703e+07  1.8743743143615615e+07  1.8793893418628708e+07  1.8794313484290186e+07  2.0162045895742606e+07  2.0342624301890269e+07  2.1524507516789347e+07  2.1649983208771426e+07  2.1293335800805632e+07  2.1538210134076990e+07  2.1340435041739974e+07  2.1264254102073587e+07  2.1027202039088298e+07  2.1029742332110770e+07  1.9528939674597520e+07  1.9314170293854106e+07  2.0383739293750409e+07  2.0550719787968408e+07  1.9042123519763418e+07  1.9130373406336628e+07  1.9106891356304154e+07  1.9287141607117265e+07  1.9599245463338945e+07  2.0088278201004837e+07  1.9966007429931898e+07  1.9872971297475405e+07  2.0112806017435148e+07  1.9996631469738238e+07  2.0030938450898994e+07  2.0051064773474004e+07  2.0089139487628128e+07  2.0713746518878534e+07  2.0672509985615332e+07  1.9501866683460075e+07  1.9463105706300512e+07  1.9148708908972450e+07  1.9324643364057608e+07  1.9177162865808655e+07  1.9103497332039926e+07  1.9867521319275327e+07  1.9890678595786858e+07  1.9739511333556753e+07  2.1491320504598808e+07  1.9951302403598901e+07  1.9279438552056901e+07  2.0598380409790795e+07  2.0823065405735675e+07  2.1093004647787470e+07  2.0970450764155835e+07  1.9222266113355294e+07  1.9101708025023915e+07  1.8857336073278319e+07  2.0039753639896408e+07  1.9153321673734862e+07  2.0100985263771258e+07  1.8909481478724658e+07  1.8821316324743588e+07  2.0136839091662519e+07  1.9670102250510175e+07  2.0902371006775990e+07  1.8971419573133655e+07  1.8913838772709519e+07  1.8872047127901435e+07  1.8865906156651799e+07  1.8900471687665734e+07  2.0511739312160671e+07  1.8885172269325983e+07  1.9012682663638346e+07  1.8945235083662793e+07  2.1478809398509800e+07  2.0280251710986387e+07  2.0034681224127773e+07  2.0005093031506076e+07  2.0010930201132163e+07  1.8979235723393954e+07  2.1012038521182347e+07  2.1050555528112084e+07  1.9174168999230742e+07  1.9183634210283604e+07  1.9711595633932348e+07  1.9769006137756836e+07  1.8901883489548303e+07  1.9618985972758770e+07  2.0456964647276424e+07  2.0541200766381793e+07  2.0385095848241150e+07  2.0576655243606195e+07  1.8773963817671720e+07  1.8776359965059873e+07  1.8776590745547917e+07  1.8777491232861102e+07  2.1091311954277102e+07  1.9057219178524945e+07  1.9123129268432714e+07  1.9200371934021484e+07  2.0002967528968908e+07  1.9969685859471865e+07  2.0015037666991074e+07  1.9953084919783596e+07  1.8785478945508201e+07  1.8768865013654869e+07  1.8752758967341822e+07  1.9982968468663335e+07  2.1310644838919342e+07  2.1369444187505506e+07  2.1438638544305313e+07  2.0198624553996958e+07  2.0976847219833031e+07  1.9876196456921980e+07  1.9207904196214322e+07  1.9165953298047345e+07  1.9232939293090593e+07  2.0752423634234704e+07  2.0479158077652737e+07  2.0552062136121653e+07  1.8999555492670301e+07  1.8970264803604636e+07  1.8955263666739423e+07  1.9376650162266050e+07  1.9476707487946123e+07  1.9454227494186271e+07  1.9335811567092802e+07  2.0899365527095959e+07  1.9174293584863745e+07  1.9160397061674371e+07  1.9173121245110750e+07  2.0090979053241357e+07  2.0064899850011718e+07  2.0074915446211487e+07  1.8950417051282238e+07  1.9013634744971644e+07  1.9063703756308246e+07  1.8814529913438823e+07  1.9139844132902473e+07  1.9128074562594261e+07  2.0147286843987960e+07  2.0229150962075923e+07  2.0183834181317706e+07  2.0129342182669442e+07  2.0133975724634990e+07  2.0152209515763402e+07  2.0115568142654348e+07  1.9099094809321571e+07  1.9154890999315090e+07  1.9717278107624918e+07  2.0968746768343348e+07  1.9289361746545523e+07  1.9255151692720383e+07  1.8983903675445534e+07  1.8880129795076571e+07  1.9060548360772815e+07  1.9046019150759045e+07  1.8852159668470733e+07  1.8796598020510245e+07  2.0073567798179280e+07  2.0012495088873435e+07  2.0026825348051954e+07  2.0525895287247192e+07  2.0530759909940809e+07  1.9241209486537382e+07  1.9319633335783154e+07  1.8811720201841693e+07  1.8843621802618045e+07  1.9065406931822348e+07  1.8775540582099281e+07  1.8856147327940587e+07  1.8757194733548559e+07  1.9123211611500066e+07  2.1455198590414237e+07  2.0042409796189263e+07  2.0118496930169139e+07  1.9942081845113538e+07  2.1069424608606197e+07  2.1076659845223013e+07  2.1019208228803109e+07  1.9303501123720136e+07  1.9424416514645085e+07  1.9314001556124035e+07  1.9055150429047499e+07  1.9533522637243077e+07  1.9521614782718103e+07  1.8764716475526907e+07  1.8795098909921270e+07  2.0790141710635241e+07  2.0768942317030333e+07  2.0843621716010015e+07  1.8791316396862015e+07  1.9142295690470297e+07  </DataArray> 
</PointData> 
</Piece>
</UnstructuredGrid>
</VTKFile>