<?xml version="1.0"?>
<VTKFile type="UnstructuredGrid"  version="0.1"  >
<UnstructuredGrid>
<Piece  NumberOfPoints="784" NumberOfCells="1320">
<Points>
<DataArray  type="Float64"  NumberOfComponents="3"  format="ascii">266913.131276 586512.314988 0  266738.13716 587762.325998 0  266363.132677 589012.328643 0  266175.641078 590169.601714 0  265666.575631 591040.7699119999 0  264875.64001 591687.766419 0  264900.636161 591845.049083 0  266088.14152 592012.3229499999 0  265561.959259 592661.17101 0  264288.136855 593037.368683 0  263865.194033 593999.8486949999 0  263850.641856 593236.729596 0  263625.634872 592756.525286 0  262689.574249 593299.848918 0  262475.636737 594003.0907310001 0  261934.554452 594340.929792 0  261725.631329 594932.094409 0  261729.256443 595728.498809 0  262138.136044 595012.330523 0  262288.141035 596262.333669 0  261488.994028 597511.480605 0  261234.15567 598316.338928 0  260815.635063 599014.863821 0  261400.643658 599389.7367680001 0  261322.963374 600022.185065 0  261119.455248 600931.061306 0  261607.436504 601293.0629359999 0  260807.446929 602089.899812 0  260025.642878 602988.868697 0  259613.135827 603937.3854499999 0  259050.643123 604100.987861 0  258411.880065 603988.6335979999 0  257764.357469 604449.872569 0  257971.239668 605320.429125 0  258041.396867 605740.635381 0  257188.143339 606987.394312 0  256038.141198 608112.3554550001 0  254788.141633 609087.4026939999 0  253588.140656 609812.362881 0  252338.135706 609737.4048949999 0  251088.138116 609787.404055 0  249963.12851 610287.399466 0  248613.130524 610462.365857 0  247363.132198 610687.407659 0  246113.130532 610837.411551 0  245832.347438 610918.209918 0  245016.946433 610958.5639439999 0  244313.129646 610762.372259 0  244400.622144 611378.093316 0  243939.669208 612460.8930899999 0  242960.649733 611984.892792 0  242170.381438 611919.647351 0  241888.122919 611112.375656 0  241393.380757 610467.6456149999 0  240594.157528 611306.369822 0  240525.621947 610804.648112 0  240363.123632 610512.3745050001 0  239113.123247 610262.374278 0  239813.12126 609037.412459 0  240588.122952 607812.368199 0  241013.119545 606625.9534560001 0  241454.373249 605724.888025 0  242238.120107 604687.3993 0  243088.121248 603462.362766 0  242860.319451 603007.3932640001 0  241563.116617 603812.361344 0  241778.400913 604327.642217 0  242059.837234 604824.879102 0  241475.620201 604923.2402390001 0  241462.182234 605449.881372 0  240906.219606 605674.888222 0  240241.856192 606891.125066 0  239891.734044 607841.012479 0  239048.653431 608724.889805 0  238118.054545 608974.895967 0  238888.111029 607337.406468 0  239738.119992 606212.362729 0  240288.12044 605687.4075229999 0  240380.212307 604729.521696 0  239347.309632 604603.204501 0  238888.112036 604387.408787 0  237913.11173 604687.401386 0  236784.172023 604499.882783 0  236883.408793 603717.08334 0  236154.933927 603595.565605 0  235688.103943 602912.369264 0  235763.108033 601662.366516 0  236363.110805 600412.35884 0  236738.107995 599162.356577 0  236525.607944 598482.2412899999 0  236138.109208 599362.357613 0  235725.063048 600325.4466510001 0  235091.948926 601408.5220979999 0  235188.10921 600312.366344 0  234375.602405 600833.9674270001 0  234663.109308 599912.358011 0  234138.105122 600062.365644 0  233955.307245 599029.561063 0  233338.103791 598387.401556 0  233988.09795 597862.356384 0  235138.101489 596637.3947750001 0  235563.1039 595387.392428 0  236513.103639 594212.356312 0  237163.10684 592987.3929869999 0  238313.103031 591862.3515540001 0  239513.107028 590812.3512640001 0  240638.102135 589787.387271 0  241463.109549 588587.378486 0  242294.489816 587443.735215 0  242913.101099 586512.341804 0  243544.066915 585474.859604 0  243040.448415 585184.975583 0  242438.10214 585337.38015 0  241313.102353 586562.339499 0  240538.107104 587787.382449 0  240114.641085 588588.939407 0  239388.100256 589437.382238 0  238188.104456 590512.346358 0  236938.100507 591362.349798 0  235813.10453 592537.396388 0  234864.502938 593178.7753880001 0  234463.097651 592862.357267 0  235113.0965 591662.3545979999 0  235713.101522 590412.346099 0  235777.688431 589976.7582779999 0  234943.583145 590706.265132 0  234462.482256 591490.2841159999 0  233801.497784 592112.940187 0  233388.099101 591787.394208 0  234013.093099 590437.393065 0  234776.217248 587148.7548100001 0  235163.093726 586562.3486189999 0  235313.098918 585483.229012 0  235250.59732 584662.298153 0  235588.093896 583337.379493 0  236329.432041 582199.858992 0  237188.096234 581462.3349939999 0  237463.088521 580212.335511 0  238350.592558 579057.652616 0  238591.415797 578574.847681 0  238313.094106 577612.328905 0  239229.696732 577695.769664 0  240195.161018 577513.008613 0  240614.996733 577149.8518770001 0  240663.091715 577412.332622 0  240288.092486 578662.334085 0  239942.357258 579508.095811 0  240438.100019 580212.3334220001 0  241338.095553 580387.375355 0  241238.099828 579137.369157 0  241788.097003 577887.370889 0  241983.554649 577241.9220939999 0  242054.178239 576927.8105029999 0  242588.100699 575737.366175 0  243149.324833 574898.583978 0  243695.278626 573919.517981 0  244268.494418 573724.8454239999 0  244995.134063 573930.2767810001 0  245417.314363 573391.601898 0  243450.599125 571859.479773 0  245776.797908 572599.8353060001 0  246779.639852 572973.285167 0  248034.741935 573186.082054 0  249413.10651 573162.3205520001 0  250496.922226 573271.1521899999 0  251613.105126 573237.3551319999 0  252421.824577 572846.032906 0  253256.245022 572580.4733130001 0  253739.471933 571960.9547369999 0  254174.511864 572149.8346569999 0  254484.944333 571684.194807 0  254384.108649 570891.346712 0  254344.002752 570218.26407 0  255025.609604 570829.0294979999 0  255715.005913 570489.264586 0  256218.846343 570774.828355 0  256834.349083 570508.5908 0  257390.092515 570014.308325 0  257624.431042 568493.478911 0  259355.811717 569380.021819 0  260033.372814 569617.066669 0  262679.741751 570320.699974 0  263289.115756 569524.817815 0  263463.114338 570512.301061 0  264638.198419 570687.3443539999 0  265058.220065 571334.378467 0  265447.561421 572077.90485 0  265488.125257 573137.3446020001 0  265131.937715 573963.293593 0  265432.389648 575093.068786 0  265638.122314 576338.029955 0  265750.630817 577371.8281319999 0  265738.570663 578561.9098850001 0  265875.630866 579139.630549 0  266213.129247 579862.311842 0  266563.130472 581112.314509 0  266238.135356 582362.310259 0  265938.12863 583612.320897 0  265738.131342 584762.3210189999 0  266875.638633 585365.358768 0  264018.7239399826 593650.4646671159 0  262236.3944351029 595831.1252656333 0  241846.246678 605206.1436625 0  240200.622106 608424.8903290001 0  240943.4862974102 610939.7757535663 0  236550.6094 599787.3577085 0  238528.1212051503 608102.9081793013 0  244413.4891967989 572609.5960859474 0  236382.0474488751 598808.3067022427 0  235369.601910944 600933.5380148316 0  235413.099011 591037.3503485 0  235446.2251831186 590266.6553871984 0  240475.5921005 578037.3333535 0  240413.173949154 577324.4280286073 0  240574.037899 606283.0066440001 0  263857.9179445 593618.2891454998 0  264153.4303974913 593343.916675058 0  242042.1833925 604946.7714812499 0  241650.3099635 605465.51584375 0  244613.6985165 572229.6575395 0  236631.8579695 598822.2989335 0  235140.029068 600860.444221 0  241767.7287175 604874.0596705 0  242140.15174975 604817.0853906251 0  234781.8558075 600573.1668855001 0  242091.167571125 604881.9284359375 0  234519.3558565 600373.162719 0  254604.8337712102 583989.0014118921 0  250699.5846056537 594617.3297041012 0  250540.4796469513 602258.2940568649 0  248483.7490186612 580334.7345534252 0  258549.2190328319 577893.951823392 0  257067.0067473103 590016.5327808241 0  243285.0921999099 596333.923437875 0  248333.1386145258 589098.0389905117 0  256142.8445072741 595883.3911551933 0  260245.1368072523 583315.2785712298 0  253472.3380211276 578932.2908163272 0  246432.3347504817 599884.5019511909 0  261555.9240922556 588041.186709004 0  247293.1100123104 605823.8307887657 0  246458.2798550911 593168.8646574575 0  252840.0183145193 588226.5564648228 0  249828.2874404451 584740.7888937403 0  255409.5660975206 600458.8956828594 0  260819.9733392385 574219.403683011 0  252584.2262054711 605722.6603825617 0  254049.8830611471 592547.4852571967 0  250015.4356193061 598425.2225922942 0  245872.072249477 577604.9761853142 0  262002.1583249522 579753.4663046852 0  257732.6630933878 586227.970805314 0  250242.5556457866 577017.3316409125 0  244921.6453001869 581816.6358421432 0  256520.3890639471 580904.824006648 0  240779.0970645865 599524.6679555867 0  257100.1829219198 574459.5922545703 0  239912.2630002034 595231.1172704464 0  244703.0875078634 590068.6945953515 0  242549.5490268674 592874.3693043783 0  251586.0465921376 581796.2215047925 0  246643.189997516 596527.447801719 0  251049.7658069622 591057.6752245198 0  253014.5731561695 596998.6601086652 0  238680.2197353724 584542.2309791476 0  259715.365803504 591937.1938619445 0  254097.157218761 575731.4494927844 0  246806.6408589328 586139.0877599345 0  246136.1179750556 602959.471719323 0  253520.7033332401 602835.180253843 0  244125.4295793909 607538.9817227355 0  252546.8895354472 599881.3279113505 0  258289.0983523553 600397.640191779 0  247518.7952199645 583037.3718217331 0  263140.3959879661 582529.2228421422 0  262894.8586894067 585442.3590432997 0  256968.6320599076 593040.7691844478 0  243573.0187527719 600218.2795730785 0  258888.5766127351 595139.7745218446 0  262588.7569809347 576734.8569237856 0  259318.4257992262 580601.2540325444 0  249963.3812725965 607065.7205847671 0  257494.5307999607 583482.5893534871 0  258906.4757205145 572278.8089438241 0  237751.446593475 587300.5805003279 0  255142.4708720699 604956.7580261135 0  258485.4978753244 597756.9250383095 0  255516.7820591553 587791.39641967 0  239758.4692108706 601926.8203218657 0  255873.0092222999 577739.5085867504
[...]
<PointData  Scalars="f_32-0"> 
<DataArray  type="Float64"  Name="f_32-0"  format="ascii">9.4925965322980452e+06  9.5311992231727187e+06  9.5773439805398919e+06  9.6162204869317915e+06  9.6429919961167201e+06  9.6836246436304413e+06  9.6981482712732106e+06  9.7105750246306527e+06  9.7103442929533608e+06  9.7180508754031695e+06  9.7229431514558475e+06  9.7216050637277421e+06  9.7282170349919926e+06  9.8046778348809611e+06  9.8650424880267996e+06  9.9254586097487807e+06  1.0016493592621462e+07  1.0128462656877689e+07  1.0143812528406629e+07  1.0160540115909593e+07  1.0252374154915713e+07  1.0328145268684477e+07  1.0418466628869334e+07  1.0470197152178684e+07  1.0494905244451081e+07  1.0548842928006021e+07  1.0564884062871307e+07  1.0591686649909748e+07  1.0646863610370480e+07  1.0685833115135957e+07  1.0697599810501484e+07  1.0730831804881282e+07  1.0818169950530929e+07  1.0891415543560043e+07  1.0904744226254383e+07  1.0961475804851715e+07  1.1022830026132939e+07  1.1076501241050884e+07  1.1111149242818607e+07  1.1140997044895321e+07  1.1185014357780123e+07  1.1227870375832865e+07  1.1268623013030231e+07  1.1307060216476444e+07  1.1342742932151843e+07  1.1350309172142776e+07  1.1369555411927383e+07  1.1393129518910458e+07  1.1410235350664413e+07  1.1417747106796026e+07  1.1419428390605142e+07  1.1421011431035439e+07  1.1420835326451603e+07  1.1423840378683321e+07  1.1430219016294826e+07  1.1429735839052482e+07  1.1429791708195366e+07  1.1432146929591797e+07  1.1425412641643513e+07  1.1400719459706869e+07  1.1367896423341425e+07  1.1337274780483879e+07  1.1282327426179379e+07  1.1180491423310049e+07  1.1147934703192305e+07  1.1210740324304705e+07  1.1236658652744025e+07  1.1243833189027594e+07  1.1251376636082260e+07  1.1263479679176366e+07  1.1280986167508245e+07  1.1345100794381473e+07  1.1365863079456521e+07  1.1375565250328118e+07  1.1377509778122781e+07  1.1367021138257807e+07  1.1335612571353413e+07  1.1298713597863881e+07  1.1247089294872012e+07  1.1232672025766335e+07  1.1232975283696616e+07  1.1236053387393048e+07  1.1236851901799127e+07  1.1233758769161174e+07  1.1231625429923126e+07  1.1228758806182034e+07  1.1217239702060916e+07  1.1186709764165318e+07  1.1137657266795006e+07  1.1119935780259056e+07  1.1146300649196820e+07  1.1159297596999196e+07  1.1163612041975109e+07  1.1160079271252969e+07  1.1161624357259599e+07  1.1157919232561260e+07  1.1157144250011673e+07  1.1151895493248869e+07  1.1149297961810052e+07  1.1143123797677085e+07  1.1091535154878864e+07  1.1031792113615792e+07  1.0944695174964547e+07  1.0848574100803783e+07  1.0716595049904956e+07  1.0534942024447443e+07  1.0310457975092847e+07  1.0080512561764639e+07  9.8906524239990022e+06  9.7727581413674038e+06  9.7206529100054540e+06  9.8070538112300057e+06  9.9382253083654381e+06  1.0190888995979488e+07  1.0340201060378838e+07  1.0399848428023733e+07  1.0452703908715649e+07  1.0511673796925826e+07  1.0552939722127391e+07  1.0581547523667017e+07  1.0587802354979036e+07  1.0587862721328728e+07  1.0578209071536947e+07  1.0551932911702668e+07  1.0542514608843612e+07  1.0561926418560546e+07  1.0574243391823025e+07  1.0578123288660372e+07  1.0578123152272729e+07  1.0565437158098102e+07  1.0481627506986313e+07  1.0452971472344128e+07  1.0401982464845516e+07  1.0370658773665193e+07  1.0325630497785747e+07  1.0276043311979605e+07  1.0219772739899430e+07  1.0177779620389698e+07  1.0162204388649344e+07  1.0165733728671271e+07  1.0170318212849129e+07  1.0169695746811155e+07  1.0171557221822120e+07  1.0172581159667663e+07  1.0172454666176818e+07  1.0164011276148843e+07  1.0133511836618071e+07  1.0038459073152969e+07  9.8230387103736103e+06  9.6515267152439002e+06  9.5504756425337419e+06  9.5064687008503750e+06  9.4903056663048267e+06  9.4339708570934422e+06  9.3964377095429916e+06  9.3673166724683698e+06  9.3567130177455265e+06  9.3219612621075902e+06  9.2880825992173515e+06  9.2994381622106992e+06  9.2808019422734249e+06  9.2384651209959369e+06  9.1447869045656919e+06  9.0412538153802138e+06  8.9802993638425078e+06  8.9410836398264021e+06  8.9330534532788247e+06  8.9417494150568116e+06  8.9559446381905004e+06  8.9658512511247881e+06  8.9911443064189460e+06  9.0065020152698737e+06  9.0080988411556203e+06  9.0097781792563573e+06  9.0203057304159291e+06  9.0312856336527709e+06  9.0555115235865470e+06  9.0805598418078423e+06  9.0965625820948910e+06  9.1041543610445801e+06  9.1135474595794324e+06  9.1550022069904208e+06  9.1604320184434261e+06  9.1614480178631861e+06  9.1676863643727005e+06  9.1684989318639003e+06  9.1684269982693717e+06  9.1663666356971823e+06  9.1625313606325742e+06  9.1601614203325380e+06  9.1616502162280232e+06  9.1656636407270413e+06  9.1764603170111589e+06  9.1884533995216303e+06  9.2076078795640580e+06  9.2365018933596984e+06  9.2692383613512684e+06  9.3240482498464156e+06  9.4071171662964281e+06  9.4652891045371089e+06  9.7225725388402306e+06  1.0148533395463156e+07  1.1313313407544889e+07  1.1415826274554785e+07  1.1429437392216017e+07  1.1163878785011632e+07  1.1374744084091103e+07  9.2956144373674132e+06  1.1132286797351386e+07  1.1162750342148481e+07  1.0567055368687119e+07  1.0549579506632205e+07  1.0170369614245282e+07  1.0172366856624501e+07  1.1318482298552062e+07  9.7225688138136137e+06  9.7215753503113985e+06  1.1298703647482678e+07  1.1326321774840562e+07  9.2956188690672237e+06  1.1124394807387449e+07  1.1162752687617119e+07  1.1244975253087549e+07  1.1290784634358933e+07  1.1160972068351714e+07  1.1294800386310123e+07  1.1160950265446303e+07  9.0206468880445622e+06  1.0000043118141335e+07  1.0825928534453355e+07  9.0916376987924203e+06  8.9377788687012792e+06  9.2551043651900552e+06  1.0713249616861742e+07  9.4627985273798741e+06  1.0101600534131976e+07  9.1464997068884224e+06  8.8798637095782310e+06  1.0770245670387719e+07  9.4490802782798372e+06  1.1186393011221860e+07  1.0064261676155211e+07  9.0902706738949604e+06  9.2773963945230134e+06  1.0488239318095459e+07  9.0866047430353276e+06  1.1024902896417908e+07  9.6655942059918065e+06  1.0408154730286026e+07  9.2574775364749394e+06  9.0382571722103544e+06  9.0415193305875324e+06  8.9392716732017510e+06  9.4707134974659793e+06  9.0055225482287332e+06  1.1059387019517630e+07  8.9757701743976530e+06  1.0845229142625218e+07  9.8185842326249108e+06  1.0427585389913769e+07  9.0984611480880994e+06  1.0475956784922980e+07  9.4893652797562070e+06  1.0196261248642441e+07  1.0253632906418137e+07  9.6919811273242347e+06  8.8441590280794892e+06  9.4750251036998350e+06  1.1045633622427473e+07  1.0794706787439076e+07  1.1337024069313597e+07  1.0501314172005104e+07  1.0519413161438834e+07  9.3256628277002722e+06  9.1914264477503616e+06  9.3650346954236943e+06  9.7317778690978959e+06  1.0982197700007614e+07  1.0048875851180462e+07  9.1039021077653058e+06  9.0187582197702937e+06  1.1158942637735715e+07  9.0568708488335311e+06  9.0746167190067451e+06  1.0423629032384103e+07  1.0916283860936310e+07  1.0302969521053933e+07  8.9426274890176356e+06  1.1182009872684900e+07  8.8878539095547255e+06  9.6402856998587083e+06  9.8556552229981776e+06  9.8286510826360472e+06  9.4785263813130073e+06  9.0206662286700774e+06  9.5156543132260609e+06  9.2523181936104763e+06  8.9943209076173734e+06  9.1208479802865088e+06  9.2654194028794579e+06  9.2651669741593301e+06  1.1294456698461650e+07  1.1027180417982753e+07  9.1253331792764310e+06  1.1223764044038441e+07  1.0752798351530707e+07  1.0685881970030773e+07  1.1030143803468606e+07  1.0128172074752551e+07  9.5468584889950473e+06  1.0262059666222304e+07  1.0672894291963303e+07  9.2800855323579144e+06  1.0984354800892830e+07  8.9667251757088136e+06  9.9701892242792621e+06  9.1448201196500640e+06  9.0561500997674055e+06  1.0164687778929083e+07  1.0901878290773746e+07  9.6967735121608134e+06  1.0406593561762571e+07  9.6308470003695209e+06  1.0644154916481560e+07  9.0124906067119185e+06  9.2072672627619673e+06  9.1914809256992768e+06  1.1001411103803528e+07  1.0096155470986567e+07  9.1552976735569332e+06  1.1088843025353983e+07  9.7471508816700410e+06  1.1142148119200345e+07  9.1385289084989764e+06  1.1301018170898782e+07  1.1294550307584126e+07  9.4332120607814454e+06  9.7021558537838906e+06  1.1297254121258987e+07  1.1343729975073753e+07  1.1100098628738184e+07  1.1131641964050286e+07  1.0530655790459948e+07  8.9839297487911694e+06  1.1082843978391401e+07  1.0924460476695830e+07  9.4797799180616271e+06  9.6951419524275754e+06  9.6121847058015596e+06  1.1334322291310498e+07  1.1292971553852318e+07  9.9381574523450881e+06  1.1217207573660320e+07  1.1238638802745247e+07  1.1267364140134022e+07  1.1347401638015740e+07  9.6846315044306498e+06  9.2399539430861957e+06  1.0537962179312538e+07  9.0374839743218720e+06  9.6596554162872843e+06  9.1612044354205057e+06  1.0476995841013703e+07  1.1408451151265806e+07  1.0351603801173642e+07  1.0549778437266324e+07  1.1108229428977950e+07  9.8629946254880019e+06  9.0986051065910198e+06  1.0541216153661944e+07  8.8881360756642222e+06  9.3628641029331367e+06  1.1128982875632511e+07  1.1082601651941309e+07  1.0141306729023639e+07  1.1408090941235222e+07  8.9820487680579834e+06  1.1172781423425017e+07  1.0279347837272158e+07  9.1630044610798266e+06  8.9805245386047699e+06  8.9134374137348905e+06  1.0676611275237808e+07  1.1130932813854411e+07  1.1081882534617215e+07  1.0505185561398331e+07  1.1320616531670643e+07  1.0074166975489875e+07  9.2904600911478642e+06  9.2904958406363819e+06  9.0698765112550352e+06  1.1296808821583351e+07  1.1306204796837356e+07  1.1310006786162689e+07  1.0908160814185027e+07  1.1056524718914034e+07  1.1312421020085290e+07  1.1248343319514373e+07  1.0384703788001958e+07  1.1427980157431979e+07  1.1426362183516311e+07  9.9945968287966624e+06  9.1479079597762097e+06  1.0155617204982853e+07  1.1159976110823836e+07  9.8489015991422832e+06  1.0248703448231241e+07  1.1413398125373196e+07  1.0070278371872257e+07  1.0742070066744596e+07  9.3198548674646951e+06  9.4928324031551238e+06  9.4603471924736127e+06  9.5267353503788728e+06  1.1148946316754399e+07  9.6926317654238623e+06  9.7113332080521770e+06  9.6713020985964052e+06  9.7080019015882090e+06  9.6307195116969906e+06  9.1544872173359729e+06  9.1241647609405536e+06  9.7185865250548292e+06  9.4357312277430668e+06  1.0585900431923652e+07  1.0585296311028235e+07  1.1422124164738050e+07  1.0134562044537092e+07  9.8807441733424254e+06  9.6007944865241256e+06  9.6501471033125389e+06  9.7188171658257823e+06  9.8714131053385418e+06  9.7449879985549878e+06  9.8465542831793111e+06  1.0077291351890305e+07  9.8903479283566233e+06  1.0004770909469351e+07  1.0211564586351452e+07  1.0106668458033826e+07  9.6619338023877647e+06  9.8593613952921685e+06  9.0878424771531168e+06  9.1339108077956308e+06  9.0636928413235750e+06  9.0091786385157220e+06  9.0162419265280552e+06  8.9569327089012451e+06  8.9836624913957864e+06  8.9582828085712381e+06  8.9213027319275811e+06  8.9319985284716263e+06  9.1573511752497125e+06  9.1632999681756105e+06  9.1587474321104381e+06  9.1694490069301650e+06  9.1604632297384590e+06  9.1818874624636471e+06  9.1740754640053194e+06  9.1626466798698623e+06  9.1983058706926778e+06  9.1791424004481193e+06  9.1942396876062155e+06  9.1882689553447887e+06  9.2130883081068993e+06  9.2550056419812888e+06  9.2266746410955414e+06  8.9666527825203054e+06  9.0299124782634992e+06  9.0156155037204288e+06  8.9926527527292594e+06  1.0185388077637443e+07  1.0092922064345513e+07  9.9203043582294099e+06  1.0068747445699913e+07  1.0675087223299192e+07  1.0936675797726586e+07  1.0756007013145441e+07  1.0903636014473354e+07  9.1969869907241892e+06  9.0515912786381058e+06  9.0522853393460363e+06  9.1182655105342343e+06  8.9925776780858450e+06  8.9582876547329593e+06  8.9444620125205964e+06  8.9736368770031054e+06  8.9117665066130254e+06  8.9652385491463169e+06  9.4921267522619907e+06  9.4859105807137676e+06  9.0660651149899010e+06  9.2215949897384997e+06  9.2326809228706323e+06  1.0781592880978903e+07  1.0576799650488120e+07  9.4510010665554255e+06  9.4388970536870640e+06  9.5995760522157345e+06  9.3733587767059244e+06  9.5626486463567764e+06  9.4978609249971770e+06  9.8999708322693687e+06  1.0143396093499860e+07  1.0031558928675624e+07  9.0536217611191981e+06  9.1592692770648580e+06  9.2530354294994585e+06  9.0713977604306694e+06  8.8655364450448286e+06  8.9506235640318338e+06  8.9875633620914780e+06  8.8212497346187439e+06  8.8727454838099312e+06  8.9596817496441063e+06  8.9211510992219411e+06  1.0581098040123612e+07  1.0908114629479192e+07  1.0711403224508295e+07  1.0941986700643592e+07  1.1125096728046741e+07  1.0296728261439363e+07  9.8705386744455602e+06  1.0235259851122551e+07  1.0064884187426167e+07  8.9854848665050194e+06  9.1437058108396549e+06  9.1779333299192470e+06  8.9934674651496150e+06  1.0643304048655134e+07  1.0475145864891587e+07  1.0504719366614068e+07  1.0359810919751868e+07  9.0313972550240364e+06  9.0893082642525230e+06  9.5758691240019016e+06  9.6786616120246220e+06  9.4602370420274548e+06  1.0418438595566902e+07  1.0281957605046976e+07  1.0555577511951486e+07  1.0268319630654544e+07  9.3499586624975875e+06  9.1894027302428950e+06  9.1432220196283795e+06  9.2201343792487215e+06  9.2534269040656202e+06  9.3334601766514182e+06  9.0829046421505958e+06  9.0734210749328341e+06  9.0084721264082566e+06  9.0255725149238855e+06  9.0907979833999332e+06  9.1045980027395636e+06  9.0471380581303388e+06  8.9533106980231274e+06  9.1294776703253351e+06  8.9221421281874515e+06  8.8345612445262987e+06  8.9501322597148661e+06  9.0170689927774519e+06  9.0039147988708019e+06  8.8758416472386066e+06  8.9527551354152299e+06  9.3712292830609828e+06  9.6748784245729800e+06  9.4668131016391665e+06  9.3263485884231776e+06  9.0154894234671090e+06  9.0413617476859130e+06  8.9395839375402369e+06  9.0064499546047840e+06  8.9061738193864748e+06  9.0310019800169114e+06  8.9116371256682388e+06  8.9898004640867878e+06  8.9789118074949495e+06  9.0097969952869210e+06  8.9404585151753817e+06  9.7281929723109733e+06  9.7030157795253843e+06  9.9449408190794513e+06  9.9810691302821543e+06  1.0410019157919997e+07  9.0505774951880705e+06  9.0495308281925954e+06  1.0319773649570866e+07  9.6486811199233849e+06  9.3854716368771289e+06  9.3235639494949616e+06  9.6146333766708560e+06  1.0333332333529478e+07  1.0228962772001749e+07  1.0185528701528477e+07  1.0170616027228270e+07  9.7000539479230084e+06  9.4716749815700501e+06  8.8558339741023406e+06  8.8580362118967902e+06  8.8768650567067992e+06  9.3843060572622307e+06  9.5350960205514431e+06  1.0867285578692399e+07  1.1009926579704305e+07  1.0654978635728581e+07  1.0917840041356832e+07  1.0725491386754176e+07  1.0603004723274177e+07  1.0349983209092591e+07  1.0390321391156329e+07  9.2355777160884663e+06  9.1592202367711645e+06  9.4679431807321440e+06  9.8540247641623169e+06  9.0593450094660297e+06  9.1282621769493409e+06  9.1287660988428257e+06  9.0619697672235202e+06  9.1366751265975200e+06  9.0634378900262974e+06  9.0510421762149353e+06  8.9206605151929948e+06  9.4940964090479780e+06  9.7695727658112198e+06  9.8585642195972633e+06  9.9227449621291440e+06  9.9637539428057317e+06  9.7604816193417944e+06  9.7673120688796863e+06  9.3439653990077376e+06  9.0750791141093150e+06  9.0096031487518884e+06  9.0934243253197446e+06  9.0871619641854651e+06  9.0453071916033719e+06  9.2636427573524043e+06  9.1833162750073932e+06  9.0546966234068889e+06  1.0840156930437816e+07  9.1005298871542793e+06  9.1075177451243810e+06  9.6032340539806318e+06  9.8701976087803412e+06  1.0257096804713454e+07  1.0105791215132298e+07  9.1577164109731391e+06  9.1410249977661520e+06  8.9490089321929254e+06  9.7701737814297099e+06  9.1518535909239575e+06  9.9706028376553562e+06  8.9161320182476081e+06  8.8933981168284249e+06  1.0026485848219631e+07  8.9630175043549072e+06  1.0127286294855855e+07  8.9648082401152141e+06  8.9405876457759421e+06  8.9332714554603435e+06  8.9236526848316453e+06  8.9509513442365807e+06  9.5178173222150095e+06  8.8594973803396672e+06  8.9292369452442117e+06  8.8931722337503079e+06  1.0809166391414050e+07  9.2903483728566952e+06  9.0328277751268148e+06  9.0338999789926186e+06  9.0794964398199376e+06  9.0397255290151127e+06  1.0290499471331427e+07  1.0329426565409502e+07  9.0283221551981997e+06  9.0515293319084235e+06  8.9853097802018523e+06  8.9632496149326507e+06  8.8776655190552250e+06  9.3407605702084657e+06  9.4573864451881833e+06  9.5650391481201518e+06  9.3870763534372691e+06  9.6248421820221655e+06  8.8251791437330153e+06  8.8725944543427452e+06  8.8483102934137639e+06  8.8597030461631659e+06  1.0421067725700228e+07  8.9963388914746754e+06  9.0188501666793264e+06  9.0428743140229974e+06  8.9938176731613465e+06  8.9546712003701739e+06  8.9909736067608651e+06  8.9785839631546903e+06  8.8796417103231866e+06  8.8918100118380785e+06  8.8712646324500740e+06  9.1531342748065423e+06  1.0628906808754493e+07  1.0693438967430368e+07  1.0773375466754388e+07  1.0098125597245339e+07  1.0297032275035674e+07  9.0220939837988187e+06  9.0497739607206713e+06  9.0257802789080814e+06  9.0792946618916951e+06  9.7759907373877726e+06  9.5513161231478490e+06  9.6048925385733470e+06  8.9933057100858428e+06  8.9874790626334790e+06  8.9969836941442434e+06  9.2085254544118512e+06  9.2614765708420482e+06  9.2065025113833193e+06  9.1486128185985889e+06  9.9790399193267096e+06  9.1625829249342568e+06  9.1428717420682833e+06  9.1555563463056087e+06  9.9329181896210108e+06  9.9139490142094065e+06  9.9177249174726345e+06  8.9257220578662120e+06  8.9658402909903917e+06  9.0113591183703411e+06  8.9064558154632710e+06  9.1553157186079435e+06  9.1396883500767257e+06  1.0036807483602855e+07  1.0137088844000822e+07  1.0082899868109625e+07  1.0017359558714649e+07  1.0021601879673706e+07  1.0046204951601496e+07  9.9862410048904251e+06  9.0535750801026132e+06  9.1582398994646929e+06  8.9422656325026453e+06  1.0222036307134289e+07  9.0796518632306494e+06  9.0733910723226536e+06  8.9758204802982304e+06  8.9290094763228912e+06  8.9959288114866354e+06  8.9926455617395416e+06  8.9190526135202255e+06  8.9068777226633113e+06  9.1345698072825056e+06  9.0467319718961865e+06  9.1347025139056947e+06  9.5338796366082877e+06  9.5440841990836859e+06  9.0595853416184522e+06  9.1103727649056278e+06  8.8225696181396060e+06  8.8374361250821594e+06  8.9542371688175108e+06  8.8115784831372276e+06  8.9087456087477654e+06  8.8559589913746603e+06  8.9870637325741183e+06  1.0786696527429448e+07  9.0155670390696339e+06  9.0983842486942746e+06  9.0428452343824171e+06  1.0406993493711201e+07  1.0408886443581432e+07  1.0347262771411793e+07  9.1763849702349398e+06  9.2753492884027101e+06  9.1578540577568952e+06  8.9958925398127139e+06  9.2697360996848829e+06  9.3294526986257583e+06  8.8756029080486502e+06  8.8888096570002399e+06  9.8296214546984304e+06  9.7950204191003609e+06  9.9007587360905930e+06  8.8654910692494456e+06  9.1408256280676909e+06  </DataArray> 
</PointData> 
</Piece>
</UnstructuredGrid>
</VTKFile>