<?xml version="1.0"?>
<VTKFile type="UnstructuredGrid"  version="0.1"  >
<UnstructuredGrid>
<Piece  NumberOfPoints="784" NumberOfCells="1320">
<Points>
<DataArray  type="Float64"  NumberOfComponents="3"  format="ascii">266913.131276 586512.314988 0  266738.13716 587762.325998 0  266363.132677 589012.328643 0  266175.641078 590169.601714 0  265666.575631 591040.7699119999 0  264875.64001 591687.766419 0  264900.636161 591845.049083 0  266088.14152 592012.3229499999 0  265561.959259 592661.17101 0  264288.136855 593037.368683 0  263865.194033 593999.8486949999 0  263850.641856 593236.729596 0  263625.634872 592756.525286 0  262689.574249 593299.848918 0  262475.636737 594003.0907310001 0  261934.554452 594340.929792 0  261725.631329 594932.094409 0  261729.256443 595728.498809 0  262138.136044 595012.330523 0  262288.141035 596262.333669 0  261488.994028 597511.480605 0  261234.15567 598316.338928 0  260815.635063 599014.863821 0  261400.643658 599389.7367680001 0  261322.963374 600022.185065 0  261119.455248 600931.061306 0  261607.436504 601293.0629359999 0  260807.446929 602089.899812 0  260025.642878 602988.868697 0  259613.135827 603937.3854499999 0  259050.643123 604100.987861 0  258411.880065 603988.6335979999 0  257764.357469 604449.872569 0  257971.239668 605320.429125 0  258041.396867 605740.635381 0  257188.143339 606987.394312 0  256038.141198 608112.3554550001 0  254788.141633 609087.4026939999 0  253588.140656 609812.362881 0  252338.135706 609737.4048949999 0  251088.138116 609787.404055 0  249963.12851 610287.399466 0  248613.130524 610462.365857 0  247363.132198 610687.407659 0  246113.130532 610837.411551 0  245832.347438 610918.209918 0  245016.946433 610958.5639439999 0  244313.129646 610762.372259 0  244400.622144 611378.093316 0  243939.669208 612460.8930899999 0  242960.649733 611984.892792 0  242170.381438 611919.647351 0  241888.122919 611112.375656 0  241393.380757 610467.6456149999 0  240594.157528 611306.369822 0  240525.621947 610804.648112 0  240363.123632 610512.3745050001 0  239113.123247 610262.374278 0  239813.12126 609037.412459 0  240588.122952 607812.368199 0  241013.119545 606625.9534560001 0  241454.373249 605724.888025 0  242238.120107 604687.3993 0  243088.121248 603462.362766 0  242860.319451 603007.3932640001 0  241563.116617 603812.361344 0  241778.400913 604327.642217 0  242059.837234 604824.879102 0  241475.620201 604923.2402390001 0  241462.182234 605449.881372 0  240906.219606 605674.888222 0  240241.856192 606891.125066 0  239891.734044 607841.012479 0  239048.653431 608724.889805 0  238118.054545 608974.895967 0  238888.111029 607337.406468 0  239738.119992 606212.362729 0  240288.12044 605687.4075229999 0  240380.212307 604729.521696 0  239347.309632 604603.204501 0  238888.112036 604387.408787 0  237913.11173 604687.401386 0  236784.172023 604499.882783 0  236883.408793 603717.08334 0  236154.933927 603595.565605 0  235688.103943 602912.369264 0  235763.108033 601662.366516 0  236363.110805 600412.35884 0  236738.107995 599162.356577 0  236525.607944 598482.2412899999 0  236138.109208 599362.357613 0  235725.063048 600325.4466510001 0  235091.948926 601408.5220979999 0  235188.10921 600312.366344 0  234375.602405 600833.9674270001 0  234663.109308 599912.358011 0  234138.105122 600062.365644 0  233955.307245 599029.561063 0  233338.103791 598387.401556 0  233988.09795 597862.356384 0  235138.101489 596637.3947750001 0  235563.1039 595387.392428 0  236513.103639 594212.356312 0  237163.10684 592987.3929869999 0  238313.103031 591862.3515540001 0  239513.107028 590812.3512640001 0  240638.102135 589787.387271 0  241463.109549 588587.378486 0  242294.489816 587443.735215 0  242913.101099 586512.341804 0  243544.066915 585474.859604 0  243040.448415 585184.975583 0  242438.10214 585337.38015 0  241313.102353 586562.339499 0  240538.107104 587787.382449 0  240114.641085 588588.939407 0  239388.100256 589437.382238 0  238188.104456 590512.346358 0  236938.100507 591362.349798 0  235813.10453 592537.396388 0  234864.502938 593178.7753880001 0  234463.097651 592862.357267 0  235113.0965 591662.3545979999 0  235713.101522 590412.346099 0  235777.688431 589976.7582779999 0  234943.583145 590706.265132 0  234462.482256 591490.2841159999 0  233801.497784 592112.940187 0  233388.099101 591787.394208 0  234013.093099 590437.393065 0  234776.217248 587148.7548100001 0  235163.093726 586562.3486189999 0  235313.098918 585483.229012 0  235250.59732 584662.298153 0  235588.093896 583337.379493 0  236329.432041 582199.858992 0  237188.096234 581462.3349939999 0  237463.088521 580212.335511 0  238350.592558 579057.652616 0  238591.415797 578574.847681 0  238313.094106 577612.328905 0  239229.696732 577695.769664 0  240195.161018 577513.008613 0  240614.996733 577149.8518770001 0  240663.091715 577412.332622 0  240288.092486 578662.334085 0  239942.357258 579508.095811 0  240438.100019 580212.3334220001 0  241338.095553 580387.375355 0  241238.099828 579137.369157 0  241788.097003 577887.370889 0  241983.554649 577241.9220939999 0  242054.178239 576927.8105029999 0  242588.100699 575737.366175 0  243149.324833 574898.583978 0  243695.278626 573919.517981 0  244268.494418 573724.8454239999 0  244995.134063 573930.2767810001 0  245417.314363 573391.601898 0  243450.599125 571859.479773 0  245776.797908 572599.8353060001 0  246779.639852 572973.285167 0  248034.741935 573186.082054 0  249413.10651 573162.3205520001 0  250496.922226 573271.1521899999 0  251613.105126 573237.3551319999 0  252421.824577 572846.032906 0  253256.245022 572580.4733130001 0  253739.471933 571960.9547369999 0  254174.511864 572149.8346569999 0  254484.944333 571684.194807 0  254384.108649 570891.346712 0  254344.002752 570218.26407 0  255025.609604 570829.0294979999 0  255715.005913 570489.264586 0  256218.846343 570774.828355 0  256834.349083 570508.5908 0  257390.092515 570014.308325 0  257624.431042 568493.478911 0  259355.811717 569380.021819 0  260033.372814 569617.066669 0  262679.741751 570320.699974 0  263289.115756 569524.817815 0  263463.114338 570512.301061 0  264638.198419 570687.3443539999 0  265058.220065 571334.378467 0  265447.561421 572077.90485 0  265488.125257 573137.3446020001 0  265131.937715 573963.293593 0  265432.389648 575093.068786 0  265638.122314 576338.029955 0  265750.630817 577371.8281319999 0  265738.570663 578561.9098850001 0  265875.630866 579139.630549 0  266213.129247 579862.311842 0  266563.130472 581112.314509 0  266238.135356 582362.310259 0  265938.12863 583612.320897 0  265738.131342 584762.3210189999 0  266875.638633 585365.358768 0  264018.7239399826 593650.4646671159 0  262236.3944351029 595831.1252656333 0  241846.246678 605206.1436625 0  240200.622106 608424.8903290001 0  240943.4862974102 610939.7757535663 0  236550.6094 599787.3577085 0  238528.1212051503 608102.9081793013 0  244413.4891967989 572609.5960859474 0  236382.0474488751 598808.3067022427 0  235369.601910944 600933.5380148316 0  235413.099011 591037.3503485 0  235446.2251831186 590266.6553871984 0  240475.5921005 578037.3333535 0  240413.173949154 577324.4280286073 0  240574.037899 606283.0066440001 0  263857.9179445 593618.2891454998 0  264153.4303974913 593343.916675058 0  242042.1833925 604946.7714812499 0  241650.3099635 605465.51584375 0  244613.6985165 572229.6575395 0  236631.8579695 598822.2989335 0  235140.029068 600860.444221 0  241767.7287175 604874.0596705 0  242140.15174975 604817.0853906251 0  234781.8558075 600573.1668855001 0  242091.167571125 604881.9284359375 0  234519.3558565 600373.162719 0  254604.8337712102 583989.0014118921 0  250699.5846056537 594617.3297041012 0  250540.4796469513 602258.2940568649 0  248483.7490186612 580334.7345534252 0  258549.2190328319 577893.951823392 0  257067.0067473103 590016.5327808241 0  243285.0921999099 596333.923437875 0  248333.1386145258 589098.0389905117 0  256142.8445072741 595883.3911551933 0  260245.1368072523 583315.2785712298 0  253472.3380211276 578932.2908163272 0  246432.3347504817 599884.5019511909 0  261555.9240922556 588041.186709004 0  247293.1100123104 605823.8307887657 0  246458.2798550911 593168.8646574575 0  252840.0183145193 588226.5564648228 0  249828.2874404451 584740.7888937403 0  255409.5660975206 600458.8956828594 0  260819.9733392385 574219.403683011 0  252584.2262054711 605722.6603825617 0  254049.8830611471 592547.4852571967 0  250015.4356193061 598425.2225922942 0  245872.072249477 577604.9761853142 0  262002.1583249522 579753.4663046852 0  257732.6630933878 586227.970805314 0  250242.5556457866 577017.3316409125 0  244921.6453001869 581816.6358421432 0  256520.3890639471 580904.824006648 0  240779.0970645865 599524.6679555867 0  257100.1829219198 574459.5922545703 0  239912.2630002034 595231.1172704464 0  244703.0875078634 590068.6945953515 0  242549.5490268674 592874.3693043783 0  251586.0465921376 581796.2215047925 0  246643.189997516 596527.447801719 0  251049.7658069622 591057.6752245198 0  253014.5731561695 596998.6601086652 0  238680.2197353724 584542.2309791476 0  259715.365803504 591937.1938619445 0  254097.157218761 575731.4494927844 0  246806.6408589328 586139.0877599345 0  246136.1179750556 602959.471719323 0  253520.7033332401 602835.180253843 0  244125.4295793909 607538.9817227355 0  252546.8895354472 599881.3279113505 0  258289.0983523553 600397.640191779 0  247518.7952199645 583037.3718217331 0  263140.3959879661 582529.2228421422 0  262894.8586894067 585442.3590432997 0  256968.6320599076 593040.7691844478 0  243573.0187527719 600218.2795730785 0  258888.5766127351 595139.7745218446 0  262588.7569809347 576734.8569237856 0  259318.4257992262 580601.2540325444 0  249963.3812725965 607065.7205847671 0  257494.5307999607 583482.5893534871 0  258906.4757205145 572278.8089438241 0  237751.446593475 587300.5805003279 0  255142.4708720699 604956.7580261135 0  258485.4978753244 597756.9250383095 0  255516.7820591553 587791.39641967 0  239758.4692108706 601926.8203218657 0  255873.0092222999 577739.5085867504
[...]
<PointData  Scalars="f_49376-0"> 
<DataArray  type="Float64"  Name="f_49376-0"  format="ascii">3.3956583275953203e+07  3.3994013765250593e+07  3.4034936079393454e+07  3.4065676958749987e+07  3.4085287914144903e+07  3.4111675304751962e+07  3.4119931748320065e+07  3.4125747407195352e+07  3.4126197920566142e+07  3.4132265549622670e+07  3.4135278671256565e+07  3.4134470319197737e+07  3.4138736360537514e+07  3.4174560664205715e+07  3.4196863684201822e+07  3.4216005347769730e+07  3.4241178828730002e+07  3.4267979815667138e+07  3.4270764034490682e+07  3.4275162918576278e+07  3.4295122786466457e+07  3.4309963812694132e+07  3.4325989957729660e+07  3.4334257405117951e+07  3.4338277239279293e+07  3.4346712769805789e+07  3.4349042565542735e+07  3.4353275466150954e+07  3.4360900614574008e+07  3.4365859070799723e+07  3.4367273853805475e+07  3.4370898505841143e+07  3.4379592165658563e+07  3.4386351223835602e+07  3.4387552558711790e+07  3.4392712760638215e+07  3.4398125878568344e+07  3.4402731607332580e+07  3.4405744244604945e+07  3.4408004257481277e+07  3.4411155311946094e+07  3.4414151816988975e+07  3.4416827711542644e+07  3.4419196478483178e+07  3.4421332783545762e+07  3.4421776879161164e+07  3.4422875049916804e+07  3.4424202608193934e+07  3.4425258760376982e+07  3.4425855155190684e+07  3.4425999471844114e+07  3.4426145528350808e+07  3.4426040792840280e+07  3.4426118530552395e+07  3.4426672639256313e+07  3.4426603006986246e+07  3.4426572564020835e+07  3.4426819773272105e+07  3.4426139369604774e+07  3.4424338855059095e+07  3.4422028052163117e+07  3.4419771624081112e+07  3.4415743017545648e+07  3.4407614034159638e+07  3.4403924567703068e+07  3.4406812783177808e+07  3.4408444679168366e+07  3.4408873687225536e+07  3.4409451001773305e+07  3.4410316102349430e+07  3.4411511517733239e+07  3.4415687284738705e+07  3.4417123682620384e+07  3.4417972403393179e+07  3.4418204796167418e+07  3.4417241858759217e+07  3.4415071052779183e+07  3.4412683188737914e+07  3.4409319700239770e+07  3.4408402723666839e+07  3.4408400128327928e+07  3.4408635998242490e+07  3.4408727124719739e+07  3.4408358121085964e+07  3.4408177636014864e+07  3.4407906892081283e+07  3.4406764108512603e+07  3.4403743844547316e+07  3.4398692718939312e+07  3.4396324162430376e+07  3.4398516201052912e+07  3.4399808615014561e+07  3.4400325959861852e+07  3.4399946539725631e+07  3.4400233974188432e+07  3.4399827644397892e+07  3.4399825184968680e+07  3.4399316788975738e+07  3.4399078847981408e+07  3.4398401414518751e+07  3.4393179780468531e+07  3.4386831040500581e+07  3.4377202709418431e+07  3.4366439037378840e+07  3.4351518938593738e+07  3.4330985400840811e+07  3.4303076355757274e+07  3.4269452335104041e+07  3.4231047234040275e+07  3.4193065503241085e+07  3.4138137034467652e+07  3.4123223609116241e+07  3.4136622756604642e+07  3.4176409619594954e+07  3.4200140763958775e+07  3.4209934394445240e+07  3.4218925791115224e+07  3.4229475534641117e+07  3.4237648222605936e+07  3.4244525155903094e+07  3.4246690892463334e+07  3.4246727297566332e+07  3.4243663072081335e+07  3.4237543090413570e+07  3.4235631079880163e+07  3.4240226597005069e+07  3.4243492759464279e+07  3.4244910641911767e+07  3.4244966393010370e+07  3.4241217223761991e+07  3.4223848312843136e+07  3.4218279372524917e+07  3.4208246166413911e+07  3.4201897407477893e+07  3.4192206126359336e+07  3.4180752502250455e+07  3.4167002065887280e+07  3.4155607252472341e+07  3.4150390916098356e+07  3.4150882324024670e+07  3.4151836478233270e+07  3.4151454418539487e+07  3.4151464110890813e+07  3.4151568556829616e+07  3.4151555935987867e+07  3.4149861574539021e+07  3.4142231698352285e+07  3.4115511506676205e+07  3.4043545671098828e+07  3.3968868571054839e+07  3.3916219793979108e+07  3.3890872081224911e+07  3.3881174613636807e+07  3.3845583467632823e+07  3.3820121529183052e+07  3.3798904271170557e+07  3.3790931583955765e+07  3.3764764158600293e+07  3.3738315202560537e+07  3.3750189392476611e+07  3.3732370667585619e+07  3.3696696250963762e+07  3.3615520889163807e+07  3.3510383165090621e+07  3.3424506473566569e+07  3.3334134938823897e+07  3.3286796707460813e+07  3.3267903350729298e+07  3.3271754901267566e+07  3.3278040313505895e+07  3.3303166801372822e+07  3.3322941407509387e+07  3.3325668926915355e+07  3.3324606992112111e+07  3.3333311772162806e+07  3.3342709991367847e+07  3.3368720999117196e+07  3.3403628375822436e+07  3.3443073559200015e+07  3.3434890529574130e+07  3.3428895416675311e+07  3.3447878878281407e+07  3.3452953842309058e+07  3.3452480420341849e+07  3.3452331212954216e+07  3.3449770867542550e+07  3.3444282531127982e+07  3.3432020330675725e+07  3.3410081759606149e+07  3.3377734374652356e+07  3.3352768864364445e+07  3.3346827177592181e+07  3.3379580437263366e+07  3.3421385096655395e+07  3.3481960137927335e+07  3.3565967749680214e+07  3.3648615449874170e+07  3.3748543648050174e+07  3.3862314393750429e+07  3.3927609628498957e+07  3.4135037371253751e+07  3.4272261247535616e+07  3.4418010658960894e+07  3.4425406989644490e+07  3.4426584695574321e+07  3.4401466496458255e+07  3.4417898177211955e+07  3.3746182115642771e+07  3.4397284822778776e+07  3.4400213436817117e+07  3.4240915437528819e+07  3.4237305711698279e+07  3.4151237141659260e+07  3.4151548100606255e+07  3.4413953430572964e+07  3.4135035247220397e+07  3.4134428170039333e+07  3.4416944223733202e+07  3.4418963774336539e+07  3.3746172337150790e+07  3.4397138083933830e+07  3.4400212561941899e+07  3.4408969059845231e+07  3.4416364955430910e+07  3.4400139166039787e+07  3.4416658975165352e+07  3.4400137778214380e+07  3.3807422029388778e+07  3.4299879654688962e+07  3.4385683291688159e+07  3.3756735189407222e+07  3.2989628229261640e+07  3.4134572087485783e+07  3.4362188237237342e+07  3.4192769454953484e+07  3.4292763119404636e+07  3.3678755279816486e+07  3.3270690797198858e+07  3.4380532251375839e+07  3.4022242763793610e+07  3.4410139722938046e+07  3.4302479829108864e+07  3.4105106238399304e+07  3.3992301522304356e+07  3.4356727630898394e+07  3.3294363505364809e+07  3.4398547718701228e+07  3.4234361349679448e+07  3.4355339344467126e+07  3.3759681036951244e+07  3.3350725972617522e+07  3.3937952097198740e+07  3.3457572962412875e+07  3.3966879763368897e+07  3.3344956801779009e+07  3.4392992209810957e+07  3.3173769829922505e+07  3.4368459378902175e+07  3.4260266415856831e+07  3.4327543568492785e+07  3.3724903069659129e+07  3.4348556748831399e+07  3.4219789300929599e+07  3.4325522355385825e+07  3.4181093453561358e+07  3.4176899381341390e+07  3.3112043918168675e+07  3.4115167881690413e+07  3.4400198401737958e+07  3.4381491548387542e+07  3.4420132326735310e+07  3.4360859605543621e+07  3.4347461534306459e+07  3.3956034893196911e+07  3.3652675741925329e+07  3.3877728741675161e+07  3.4227281123447917e+07  3.4390146580762416e+07  3.4263526586390086e+07  3.3269990745891359e+07  3.3298920454353511e+07  3.4408729290870242e+07  3.3694928877264284e+07  3.3350235320521839e+07  3.4213274100380778e+07  3.4389308235271908e+07  3.4313456299802393e+07  3.4052005659900308e+07  3.4404928839606225e+07  3.3000685417799994e+07  3.4116517715570003e+07  3.4091685648245163e+07  3.4274002707898669e+07  3.3900439738505572e+07  3.3551224309380628e+07  3.4000672310972720e+07  3.4158243475564696e+07  3.3562788849275813e+07  3.3628050818705931e+07  3.3897041048284262e+07  3.4052624078060031e+07  3.4417790866402902e+07  3.4399165903066665e+07  3.3892043882699251e+07  3.4412031390881322e+07  3.4371309933249474e+07  3.4378935590427451e+07  3.4387950303102322e+07  3.4148016793152682e+07  3.4061747956100270e+07  3.4330816927345902e+07  3.4367290445043191e+07  3.4104130105464354e+07  3.4397135599858053e+07  3.3985776357808985e+07  3.4286907908103168e+07  3.3412660315317020e+07  3.3652347356903195e+07  3.4318263317957349e+07  3.4377050113715470e+07  3.4255973119575553e+07  3.4332995587256089e+07  3.4195430407844074e+07  3.4345377026892170e+07  3.3114625844611932e+07  3.3812589915869758e+07  3.3848246503674358e+07  3.4383716060720973e+07  3.4301327597124673e+07  3.3477004110122636e+07  3.4403532369609587e+07  3.4256397249932520e+07  3.4400085856296487e+07  3.3360026141734932e+07  3.4417253332441710e+07  3.4416660041826077e+07  3.3852197610555261e+07  3.4124524068622790e+07  3.4416837312375024e+07  3.4421091335767873e+07  3.4394844335676350e+07  3.4397191693059646e+07  3.4233657887799226e+07  3.3262990191179231e+07  3.4400765789224893e+07  3.4389475478570074e+07  3.3876129237489559e+07  3.4119206373486847e+07  3.4074252457361534e+07  3.4419533282341853e+07  3.4416524779833339e+07  3.4229449831865817e+07  3.4407336692003787e+07  3.4412425276049174e+07  3.4414649138052844e+07  3.4421502554506950e+07  3.4085546646352515e+07  3.3704818017781906e+07  3.4234507771565206e+07  3.3329693103139672e+07  3.4101293468958914e+07  3.3390088992558502e+07  3.4222785150162220e+07  3.4424881265625142e+07  3.4198398958327197e+07  3.4237673835437745e+07  3.4395462447487459e+07  3.4114112590816729e+07  3.3405232667986918e+07  3.4235619732060626e+07  3.3240846424244691e+07  3.3796399108055636e+07  3.4396943827225938e+07  3.4392263693683572e+07  3.4145995209919542e+07  3.4424983332241476e+07  3.3471921412288200e+07  3.4402651612780176e+07  3.4302912443520322e+07  3.3437550038424585e+07  3.3281521268087402e+07  3.3191744158379853e+07  3.4364857485646531e+07  3.4403712114552446e+07  3.4398336206831686e+07  3.4341497301817812e+07  3.4418536569512315e+07  3.4258995695696279e+07  3.3741140785123661e+07  3.3741105580666795e+07  3.3377364964810800e+07  3.4416805577085927e+07  3.4417491768840723e+07  3.4417766271789424e+07  3.4387916573165707e+07  3.4389989215780646e+07  3.4419249237723552e+07  3.4415113886219390e+07  3.4207140287364893e+07  3.4426426629143178e+07  3.4426227149118945e+07  3.4110115906085432e+07  3.3327367629439365e+07  3.4148309656391889e+07  3.4407034548744053e+07  3.4194042084845349e+07  3.4175819787984237e+07  3.4425484862119727e+07  3.4147700125512891e+07  3.4372614320762023e+07  3.3775969749240793e+07  3.3882992482015789e+07  3.3862647678204194e+07  3.3903784685042404e+07  3.4398860708554149e+07  3.4117209801808335e+07  3.4127555630669750e+07  3.4105466005001098e+07  3.4125956317436516e+07  3.4078559920383595e+07  3.3440386613934807e+07  3.3410990637665350e+07  3.4141238168914914e+07  3.3847608668288916e+07  3.4245954694840834e+07  3.4245765584915265e+07  3.4425910123529337e+07  3.4286629152200036e+07  3.4244503404428609e+07  3.4130066047484048e+07  3.4104335798866309e+07  3.4111328067756139e+07  3.4128084928560689e+07  3.4110063180114150e+07  3.4120172050794095e+07  3.4158280836068638e+07  3.4126543949242264e+07  3.4142549234578602e+07  3.4177961078478768e+07  3.4161348963427365e+07  3.4003189718284063e+07  3.4071738602302045e+07  3.3561391910734579e+07  3.3616444392543681e+07  3.3545364238712203e+07  3.3469416961915858e+07  3.3491175467847873e+07  3.3378272825384464e+07  3.3447311075721182e+07  3.3402929911811747e+07  3.3260635982612874e+07  3.3243254242214743e+07  3.3354118899021488e+07  3.3347227639939029e+07  3.3344274283502106e+07  3.3355307900034949e+07  3.3340986999155831e+07  3.3398847018485535e+07  3.3386766769101396e+07  3.3344906574481778e+07  3.3453111091985848e+07  3.3405652796092775e+07  3.3476934963455047e+07  3.3434489615967453e+07  3.3530888248503074e+07  3.3663853469649270e+07  3.3579950676439807e+07  3.3872986410745338e+07  3.3606913826011665e+07  3.3747335192646228e+07  3.3906273522409849e+07  3.4331207589632884e+07  3.4313325815703727e+07  3.4287250914835364e+07  3.4309257689701140e+07  3.4374390177798517e+07  3.4393044549622677e+07  3.4382346878670186e+07  3.4391676046235256e+07  3.3861237119432710e+07  3.3675264331125543e+07  3.3695122856134050e+07  3.3782476661696196e+07  3.3147269179643661e+07  3.3092666794448357e+07  3.3032581340021476e+07  3.3103581653041340e+07  3.2966817421046540e+07  3.3031146314176720e+07  3.4157809303829707e+07  3.4185982805508867e+07  3.4096140296012573e+07  3.4146096975239955e+07  3.4095126983744644e+07  3.4365442286884703e+07  3.4346871967492469e+07  3.4206117307478003e+07  3.4156132821406186e+07  3.4237263910179339e+07  3.4151759055966407e+07  3.4226164156780355e+07  3.4193291474440299e+07  3.4266067371108592e+07  3.4309888824484915e+07  3.4289703498968787e+07  3.3497602034483980e+07  3.3662694428912841e+07  3.3791953612563886e+07  3.3505774086868115e+07  3.3339433987449005e+07  3.3264543350186322e+07  3.3516823912557378e+07  3.3121276038097277e+07  3.3108577912817016e+07  3.3399946146659631e+07  3.3421900408472918e+07  3.4369097594016187e+07  3.4391292908687428e+07  3.4380026932692550e+07  3.4391632711414546e+07  3.4405792037981771e+07  3.4327590528524436e+07  3.4281035895564198e+07  3.4318379148710482e+07  3.4301742525752470e+07  3.4078446741219126e+07  3.4132886462310299e+07  3.4103425696698003e+07  3.4050489341070645e+07  3.4370207717608087e+07  3.4358456363724075e+07  3.4352007362902001e+07  3.4344587658181764e+07  3.3221160713842038e+07  3.3261977615397915e+07  3.4226277532585792e+07  3.4230974541356005e+07  3.4199253864112079e+07  3.4351680565314256e+07  3.4341396198476098e+07  3.4367955812235005e+07  3.4338566874911658e+07  3.3825308094210751e+07  3.3699207676691674e+07  3.3704149244811133e+07  3.3773148057809241e+07  3.3730593571045086e+07  3.3783516845937312e+07  3.3507529050058097e+07  3.3266448918509640e+07  3.3313833485078510e+07  3.3176622428151529e+07  3.3421418877085961e+07  3.3377243407033935e+07  3.3832755488444984e+07  3.3997776986125477e+07  3.4000773635653652e+07  3.3957612853712730e+07  3.3245240098730128e+07  3.3493280806523874e+07  3.3546709722820111e+07  3.3567154278939895e+07  3.3312114891762886e+07  3.3456279784044690e+07  3.3957621022318900e+07  3.4036223295691684e+07  3.3927600707971133e+07  3.3891818775073856e+07  3.3297086483022869e+07  3.3533791638345089e+07  3.3114562087027203e+07  3.3441499847582787e+07  3.3109798765373897e+07  3.3272369193514962e+07  3.3031105057639845e+07  3.3115661491879467e+07  3.3222399603712928e+07  3.3264500638918784e+07  3.3173567596213330e+07  3.4258492778244980e+07  3.4230032312279560e+07  3.4282640591694415e+07  3.4273241730997451e+07  3.4330058283005409e+07  3.3641542159652762e+07  3.3640011792067565e+07  3.4334260694797851e+07  3.4248658398616247e+07  3.4189637624557480e+07  3.4167904123618357e+07  3.4238722411550522e+07  3.4344903308819845e+07  3.4328185374918006e+07  3.4165050425433278e+07  3.4166388297736101e+07  3.4203090055385470e+07  3.4122737551080838e+07  3.3040108652781393e+07  3.3174027054774590e+07  3.3144898624215756e+07  3.4108653438099705e+07  3.4157628880319230e+07  3.4390617253956802e+07  3.4398724062677726e+07  3.4372208698834129e+07  3.4390964621165186e+07  3.4374754861219786e+07  3.4370061280057885e+07  3.4346569004167587e+07  3.4339461778092623e+07  3.3883144081822507e+07  3.3564910868206166e+07  3.4196115925015315e+07  3.4228887337917477e+07  3.3196042422607597e+07  3.3314676242424764e+07  3.3305160832640480e+07  3.3498352020717952e+07  3.3805563739142731e+07  3.4109782582975350e+07  3.4050697062013581e+07  3.4019626856801808e+07  3.4090601714050584e+07  3.4085443984993219e+07  3.4103191757913038e+07  3.4098214949979059e+07  3.4122852527917050e+07  3.4264376431503594e+07  3.4265012320925914e+07  3.3853802428369194e+07  3.3748387613386892e+07  3.3608437709580883e+07  3.3719106017125100e+07  3.3632139617646128e+07  3.3552523949324351e+07  3.3981334040724039e+07  3.4013527790607013e+07  3.3938892221095920e+07  3.4388835617023617e+07  3.4048657997389346e+07  3.3729425272929087e+07  3.4227468723822467e+07  3.4280857025097452e+07  3.4317796567298636e+07  3.4293580348651879e+07  3.3429248095144734e+07  3.3336656501710594e+07  3.3223849830106456e+07  3.4099509924949862e+07  3.3339262032633156e+07  3.4131280109598517e+07  3.3346766665852815e+07  3.3203300480864823e+07  3.4129055252444364e+07  3.3888129833705105e+07  3.4320745017231330e+07  3.3052338593746398e+07  3.3015736534692612e+07  3.2985953453963831e+07  3.2971683175714586e+07  3.3016260605559994e+07  3.4210241404764540e+07  3.3298650408443429e+07  3.3394397369930085e+07  3.3346284351072263e+07  3.4385981779972576e+07  3.4168454642321877e+07  3.4091842229285553e+07  3.4078896838475794e+07  3.4077714866136797e+07  3.3205713123413138e+07  3.4344054590319254e+07  3.4347351965287969e+07  3.3416967838878457e+07  3.3428872621529918e+07  3.3905916415199347e+07  3.3946521979104273e+07  3.3348453708791967e+07  3.3924404725540772e+07  3.4213047843401223e+07  3.4234745290843055e+07  3.4195288736104891e+07  3.4243669103137299e+07  3.3164077840940971e+07  3.3099623073756155e+07  3.3141798460981213e+07  3.3125827190969188e+07  3.4353952490117855e+07  3.3196327654578418e+07  3.3290998126226608e+07  3.3394219832757004e+07  3.4074832440510407e+07  3.4065132843219690e+07  3.4082216558017060e+07  3.4050745803456165e+07  3.3046326072651614e+07  3.2992074670129605e+07  3.3015031684952404e+07  3.4051353472842634e+07  3.4374313027740940e+07  3.4379572664158687e+07  3.4385193201489322e+07  3.4146688371265925e+07  3.4338879773570798e+07  3.4018205754142426e+07  3.3671354211761706e+07  3.3630579470372669e+07  3.3692444270573318e+07  3.4268976087415278e+07  3.4194185798641384e+07  3.4211866687139727e+07  3.3090586043444823e+07  3.3069916359183826e+07  3.3101603488708835e+07  3.3789074873283595e+07  3.3852362911628574e+07  3.3846080278303519e+07  3.3768775384088852e+07  3.4291459553506330e+07  3.3360095946084179e+07  3.3347217098154273e+07  3.3359805786519721e+07  3.4128847832720786e+07  3.4117927149777465e+07  3.4122657408069462e+07  3.3395307665017769e+07  3.3462497125445783e+07  3.3512333250604186e+07  3.3150697609064646e+07  3.3334565395649984e+07  3.3318367800651617e+07  3.4144941862412043e+07  3.4163689874298386e+07  3.4154419654609330e+07  3.4135984105694801e+07  3.4139687969202250e+07  3.4138522024582990e+07  3.4137020544136778e+07  3.3546992121575367e+07  3.3342307316771265e+07  3.3917538216482714e+07  3.4334938297853075e+07  3.3738506254808314e+07  3.3712524559841201e+07  3.3065388202460606e+07  3.3007720781257644e+07  3.3204262702242762e+07  3.3185300096876107e+07  3.3014792659361020e+07  3.2979398635549359e+07  3.4095424053865805e+07  3.4074010942669556e+07  3.4073896458854564e+07  3.4228538877425671e+07  3.4210856346608050e+07  3.3503489385344934e+07  3.3584354283387870e+07  3.3220999382366478e+07  3.3277893486223944e+07  3.3467255237945415e+07  3.3175401183869712e+07  3.3098748081882950e+07  3.3053739656342488e+07  3.3536321142273366e+07  3.4385670403060123e+07  3.4094438608258270e+07  3.4121279492362484e+07  3.4049241217750706e+07  3.4351573042182982e+07  3.4352674229502387e+07  3.4345408409174807e+07  3.3737363394208744e+07  3.3811843330794476e+07  3.3749287990118191e+07  3.3505627930564895e+07  3.3886164770266436e+07  3.3869755526932351e+07  3.3059929490214698e+07  3.3123369738739096e+07  3.4271219076514482e+07  3.4270303829306148e+07  3.4281858265203960e+07  3.3155921347401164e+07  3.3327911303831801e+07  </DataArray> 
</PointData> 
</Piece>
</UnstructuredGrid>
</VTKFile>