<?xml version="1.0"?>
<VTKFile type="UnstructuredGrid"  version="0.1"  >
<UnstructuredGrid>
<Piece  NumberOfPoints="784" NumberOfCells="1320">
<Points>
<DataArray  type="Float64"  NumberOfComponents="3"  format="ascii">266913.131276 586512.314988 0  266738.13716 587762.325998 0  266363.132677 589012.328643 0  266175.641078 590169.601714 0  265666.575631 591040.7699119999 0  264875.64001 591687.766419 0  264900.636161 591845.049083 0  266088.14152 592012.3229499999 0  265561.959259 592661.17101 0  264288.136855 593037.368683 0  263865.194033 593999.8486949999 0  263850.641856 593236.729596 0  263625.634872 592756.525286 0  262689.574249 593299.848918 0  262475.636737 594003.0907310001 0  261934.554452 594340.929792 0  261725.631329 594932.094409 0  261729.256443 595728.498809 0  262138.136044 595012.330523 0  262288.141035 596262.333669 0  261488.994028 597511.480605 0  261234.15567 598316.338928 0  260815.635063 599014.863821 0  261400.643658 599389.7367680001 0  261322.963374 600022.185065 0  261119.455248 600931.061306 0  261607.436504 601293.0629359999 0  260807.446929 602089.899812 0  260025.642878 602988.868697 0  259613.135827 603937.3854499999 0  259050.643123 604100.987861 0  258411.880065 603988.6335979999 0  257764.357469 604449.872569 0  257971.239668 605320.429125 0  258041.396867 605740.635381 0  257188.143339 606987.394312 0  256038.141198 608112.3554550001 0  254788.141633 609087.4026939999 0  253588.140656 609812.362881 0  252338.135706 609737.4048949999 0  251088.138116 609787.404055 0  249963.12851 610287.399466 0  248613.130524 610462.365857 0  247363.132198 610687.407659 0  246113.130532 610837.411551 0  245832.347438 610918.209918 0  245016.946433 610958.5639439999 0  244313.129646 610762.372259 0  244400.622144 611378.093316 0  243939.669208 612460.8930899999 0  242960.649733 611984.892792 0  242170.381438 611919.647351 0  241888.122919 611112.375656 0  241393.380757 610467.6456149999 0  240594.157528 611306.369822 0  240525.621947 610804.648112 0  240363.123632 610512.3745050001 0  239113.123247 610262.374278 0  239813.12126 609037.412459 0  240588.122952 607812.368199 0  241013.119545 606625.9534560001 0  241454.373249 605724.888025 0  242238.120107 604687.3993 0  243088.121248 603462.362766 0  242860.319451 603007.3932640001 0  241563.116617 603812.361344 0  241778.400913 604327.642217 0  242059.837234 604824.879102 0  241475.620201 604923.2402390001 0  241462.182234 605449.881372 0  240906.219606 605674.888222 0  240241.856192 606891.125066 0  239891.734044 607841.012479 0  239048.653431 608724.889805 0  238118.054545 608974.895967 0  238888.111029 607337.406468 0  239738.119992 606212.362729 0  240288.12044 605687.4075229999 0  240380.212307 604729.521696 0  239347.309632 604603.204501 0  238888.112036 604387.408787 0  237913.11173 604687.401386 0  236784.172023 604499.882783 0  236883.408793 603717.08334 0  236154.933927 603595.565605 0  235688.103943 602912.369264 0  235763.108033 601662.366516 0  236363.110805 600412.35884 0  236738.107995 599162.356577 0  236525.607944 598482.2412899999 0  236138.109208 599362.357613 0  235725.063048 600325.4466510001 0  235091.948926 601408.5220979999 0  235188.10921 600312.366344 0  234375.602405 600833.9674270001 0  234663.109308 599912.358011 0  234138.105122 600062.365644 0  233955.307245 599029.561063 0  233338.103791 598387.401556 0  233988.09795 597862.356384 0  235138.101489 596637.3947750001 0  235563.1039 595387.392428 0  236513.103639 594212.356312 0  237163.10684 592987.3929869999 0  238313.103031 591862.3515540001 0  239513.107028 590812.3512640001 0  240638.102135 589787.387271 0  241463.109549 588587.378486 0  242294.489816 587443.735215 0  242913.101099 586512.341804 0  243544.066915 585474.859604 0  243040.448415 585184.975583 0  242438.10214 585337.38015 0  241313.102353 586562.339499 0  240538.107104 587787.382449 0  240114.641085 588588.939407 0  239388.100256 589437.382238 0  238188.104456 590512.346358 0  236938.100507 591362.349798 0  235813.10453 592537.396388 0  234864.502938 593178.7753880001 0  234463.097651 592862.357267 0  235113.0965 591662.3545979999 0  235713.101522 590412.346099 0  235777.688431 589976.7582779999 0  234943.583145 590706.265132 0  234462.482256 591490.2841159999 0  233801.497784 592112.940187 0  233388.099101 591787.394208 0  234013.093099 590437.393065 0  234776.217248 587148.7548100001 0  235163.093726 586562.3486189999 0  235313.098918 585483.229012 0  235250.59732 584662.298153 0  235588.093896 583337.379493 0  236329.432041 582199.858992 0  237188.096234 581462.3349939999 0  237463.088521 580212.335511 0  238350.592558 579057.652616 0  238591.415797 578574.847681 0  238313.094106 577612.328905 0  239229.696732 577695.769664 0  240195.161018 577513.008613 0  240614.996733 577149.8518770001 0  240663.091715 577412.332622 0  240288.092486 578662.334085 0  239942.357258 579508.095811 0  240438.100019 580212.3334220001 0  241338.095553 580387.375355 0  241238.099828 579137.369157 0  241788.097003 577887.370889 0  241983.554649 577241.9220939999 0  242054.178239 576927.8105029999 0  242588.100699 575737.366175 0  243149.324833 574898.583978 0  243695.278626 573919.517981 0  244268.494418 573724.8454239999 0  244995.134063 573930.2767810001 0  245417.314363 573391.601898 0  243450.599125 571859.479773 0  245776.797908 572599.8353060001 0  246779.639852 572973.285167 0  248034.741935 573186.082054 0  249413.10651 573162.3205520001 0  250496.922226 573271.1521899999 0  251613.105126 573237.3551319999 0  252421.824577 572846.032906 0  253256.245022 572580.4733130001 0  253739.471933 571960.9547369999 0  254174.511864 572149.8346569999 0  254484.944333 571684.194807 0  254384.108649 570891.346712 0  254344.002752 570218.26407 0  255025.609604 570829.0294979999 0  255715.005913 570489.264586 0  256218.846343 570774.828355 0  256834.349083 570508.5908 0  257390.092515 570014.308325 0  257624.431042 568493.478911 0  259355.811717 569380.021819 0  260033.372814 569617.066669 0  262679.741751 570320.699974 0  263289.115756 569524.817815 0  263463.114338 570512.301061 0  264638.198419 570687.3443539999 0  265058.220065 571334.378467 0  265447.561421 572077.90485 0  265488.125257 573137.3446020001 0  265131.937715 573963.293593 0  265432.389648 575093.068786 0  265638.122314 576338.029955 0  265750.630817 577371.8281319999 0  265738.570663 578561.9098850001 0  265875.630866 579139.630549 0  266213.129247 579862.311842 0  266563.130472 581112.314509 0  266238.135356 582362.310259 0  265938.12863 583612.320897 0  265738.131342 584762.3210189999 0  266875.638633 585365.358768 0  264018.7239399826 593650.4646671159 0  262236.3944351029 595831.1252656333 0  241846.246678 605206.1436625 0  240200.622106 608424.8903290001 0  240943.4862974102 610939.7757535663 0  236550.6094 599787.3577085 0  238528.1212051503 608102.9081793013 0  244413.4891967989 572609.5960859474 0  236382.0474488751 598808.3067022427 0  235369.601910944 600933.5380148316 0  235413.099011 591037.3503485 0  235446.2251831186 590266.6553871984 0  240475.5921005 578037.3333535 0  240413.173949154 577324.4280286073 0  240574.037899 606283.0066440001 0  263857.9179445 593618.2891454998 0  264153.4303974913 593343.916675058 0  242042.1833925 604946.7714812499 0  241650.3099635 605465.51584375 0  244613.6985165 572229.6575395 0  236631.8579695 598822.2989335 0  235140.029068 600860.444221 0  241767.7287175 604874.0596705 0  242140.15174975 604817.0853906251 0  234781.8558075 600573.1668855001 0  242091.167571125 604881.9284359375 0  234519.3558565 600373.162719 0  254604.8337712102 583989.0014118921 0  250699.5846056537 594617.3297041012 0  250540.4796469513 602258.2940568649 0  248483.7490186612 580334.7345534252 0  258549.2190328319 577893.951823392 0  257067.0067473103 590016.5327808241 0  243285.0921999099 596333.923437875 0  248333.1386145258 589098.0389905117 0  256142.8445072741 595883.3911551933 0  260245.1368072523 583315.2785712298 0  253472.3380211276 578932.2908163272 0  246432.3347504817 599884.5019511909 0  261555.9240922556 588041.186709004 0  247293.1100123104 605823.8307887657 0  246458.2798550911 593168.8646574575 0  252840.0183145193 588226.5564648228 0  249828.2874404451 584740.7888937403 0  255409.5660975206 600458.8956828594 0  260819.9733392385 574219.403683011 0  252584.2262054711 605722.6603825617 0  254049.8830611471 592547.4852571967 0  250015.4356193061 598425.2225922942 0  245872.072249477 577604.9761853142 0  262002.1583249522 579753.4663046852 0  257732.6630933878 586227.970805314 0  250242.5556457866 577017.3316409125 0  244921.6453001869 581816.6358421432 0  256520.3890639471 580904.824006648 0  240779.0970645865 599524.6679555867 0  257100.1829219198 574459.5922545703 0  239912.2630002034 595231.1172704464 0  244703.0875078634 590068.6945953515 0  242549.5490268674 592874.3693043783 0  251586.0465921376 581796.2215047925 0  246643.189997516 596527.447801719 0  251049.7658069622 591057.6752245198 0  253014.5731561695 596998.6601086652 0  238680.2197353724 584542.2309791476 0  259715.365803504 591937.1938619445 0  254097.157218761 575731.4494927844 0  246806.6408589328 586139.0877599345 0  246136.1179750556 602959.471719323 0  253520.7033332401 602835.180253843 0  244125.4295793909 607538.9817227355 0  252546.8895354472 599881.3279113505 0  258289.0983523553 600397.640191779 0  247518.7952199645 583037.3718217331 0  263140.3959879661 582529.2228421422 0  262894.8586894067 585442.3590432997 0  256968.6320599076 593040.7691844478 0  243573.0187527719 600218.2795730785 0  258888.5766127351 595139.7745218446 0  262588.7569809347 576734.8569237856 0  259318.4257992262 580601.2540325444 0  249963.3812725965 607065.7205847671 0  257494.5307999607 583482.5893534871 0  258906.4757205145 572278.8089438241 0  237751.446593475 587300.5805003279 0  255142.4708720699 604956.7580261135 0  258485.4978753244 597756.9250383095 0  255516.7820591553 587791.39641967 0  239758.4692108706 601926.8203218657 0  255873.0092222999 577739.5085867504
[...]
<PointData  Scalars="f_32-0"> 
<DataArray  type="Float64"  Name="f_32-0"  format="ascii">2.9010584443366085e+06  3.0374406535320729e+06  3.2003393805308291e+06  3.3323989185638768e+06  3.4254868366640978e+06  3.5613200225941138e+06  3.6006179720451795e+06  3.6225838095702496e+06  3.6250821288363165e+06  3.6685319922640873e+06  3.6797945799366850e+06  3.6810650317581631e+06  3.7248355405082973e+06  3.9874960876350724e+06  4.1462054297378859e+06  4.2862385773280440e+06  4.4697344047495630e+06  4.6636102012340315e+06  4.6846783861844102e+06  4.7151546673293086e+06  4.8700374910623441e+06  4.9898367690835325e+06  5.1227221851533195e+06  5.1914411436365079e+06  5.2245775791348489e+06  5.2958298529460551e+06  5.3160362126875008e+06  5.3545851698368341e+06  5.4320245366699314e+06  5.4849993791939663e+06  5.5021594096382968e+06  5.5501617653695960e+06  5.6609634585599527e+06  5.7437315949850278e+06  5.7582649167383956e+06  5.8224535682575889e+06  5.8933871235004170e+06  5.9560676532636043e+06  5.9973489179826770e+06  6.0346722632971946e+06  6.0880843619376030e+06  6.1374902361522391e+06  6.1827909079311863e+06  6.2238663373661013e+06  6.2603970670894049e+06  6.2679302996842694e+06  6.2868062607578998e+06  6.3091889983181339e+06  6.3246304669379722e+06  6.3312950842849370e+06  6.3330837513837833e+06  6.3347482018547012e+06  6.3351347842329964e+06  6.3387909275791673e+06  6.3445781702984711e+06  6.3442041714840000e+06  6.3443818922633007e+06  6.3465670927469423e+06  6.3412181322454941e+06  6.3220090834640786e+06  6.2970273700534683e+06  6.2739725224429341e+06  6.2331491360229086e+06  6.1605987207420040e+06  6.1395899227449186e+06  6.1891060466557983e+06  6.2092485237177135e+06  6.2148395252806358e+06  6.2207067454353627e+06  6.2301383684220342e+06  6.2437982594806319e+06  6.2937622474260144e+06  6.3099008438808080e+06  6.3174306604411593e+06  6.3189386905168910e+06  6.3107992276409324e+06  6.2863797966959774e+06  6.2576271273618042e+06  6.2171616656077933e+06  6.2052586423241794e+06  6.2051072061418667e+06  6.2069459077877887e+06  6.2073221349265873e+06  6.2046993212213414e+06  6.2027574218263328e+06  6.2003635649086609e+06  6.1910556815483291e+06  6.1664957586575141e+06  6.1259931011199551e+06  6.1086503946489245e+06  6.1259542690002928e+06  6.1350764535247125e+06  6.1381517139424700e+06  6.1356162209635582e+06  6.1366955544604324e+06  6.1340106903374763e+06  6.1334121138286432e+06  6.1295340549682714e+06  6.1275852671834063e+06  6.1230577402657578e+06  6.0845429283102378e+06  6.0386416771958144e+06  5.9708113502509138e+06  5.8950717561614206e+06  5.7901594810225442e+06  5.6433024008804718e+06  5.4501748041340336e+06  5.2300066977144657e+06  4.9970566993889185e+06  4.7823439216976715e+06  4.4849973893655604e+06  4.3606916107937228e+06  4.3562381960464185e+06  4.4377614587820349e+06  4.4986351013079034e+06  4.5254524382450068e+06  4.5508242053932492e+06  4.5812239137775796e+06  4.6040869471896328e+06  4.6206758067452712e+06  4.6243624380977256e+06  4.6243982267069127e+06  4.6187084391216831e+06  4.6032272583902590e+06  4.5974555605906509e+06  4.6083283668226702e+06  4.6155472998344135e+06  4.6178366208891599e+06  4.6178377710219994e+06  4.6103615910477219e+06  4.5605234334406629e+06  4.5432397153153401e+06  4.5112389478608351e+06  4.4907959565938096e+06  4.4607516197833959e+06  4.4266342822146006e+06  4.3856356116867019e+06  4.3497090280711278e+06  4.3317133643836556e+06  4.3310596992501002e+06  4.3322691493229400e+06  4.3317563195152013e+06  4.3322054384128908e+06  4.3326190810545301e+06  4.3325668892674306e+06  4.3286888891783403e+06  4.3126952752652578e+06  4.2507179194673263e+06  4.0699248475669576e+06  3.8603222141755419e+06  3.7032994749059770e+06  3.6214884494781462e+06  3.5887871324803936e+06  3.4658913899057820e+06  3.3777886130578583e+06  3.3060474714479959e+06  3.2834359866255233e+06  3.2112408670639764e+06  3.1200856102107926e+06  3.0981245998437926e+06  3.0927976115771458e+06  3.0335554109092336e+06  2.8671905340420641e+06  2.6199764961262960e+06  2.3830791682483414e+06  2.0649884839264164e+06  1.8164893867600353e+06  1.6067596262571795e+06  1.4943515378748809e+06  1.4430111597527347e+06  1.3559792627403459e+06  1.3203798194092566e+06  1.3175411396812773e+06  1.3132966820479014e+06  1.2956122145492800e+06  1.2826386893992112e+06  1.2680281086725681e+06  1.2696908169201394e+06  1.2789744045175132e+06  1.2734574201884514e+06  1.2718569823440826e+06  1.2912323990629427e+06  1.2984655467812254e+06  1.2964659777906307e+06  1.2999197894991871e+06  1.2981370184766860e+06  1.2929884130257980e+06  1.2817602953183432e+06  1.2662880553031827e+06  1.2610099697000340e+06  1.2898673466857716e+06  1.3456511561766656e+06  1.4666280284619064e+06  1.5606475240537361e+06  1.6788320277234123e+06  1.8388750226877006e+06  2.0235022229297650e+06  2.2890065760632306e+06  2.6171317819993948e+06  2.8067960452449950e+06  3.6798159338431195e+06  4.6943540213285415e+06  6.2560562781349374e+06  6.3337108696527444e+06  6.3439064829240488e+06  6.1479172253399948e+06  6.3167935424896041e+06  3.0987069530164883e+06  6.1163752342834324e+06  6.1375357884441605e+06  4.6121513796232678e+06  4.6012382089046398e+06  4.3316631083761826e+06  4.3325308657645993e+06  6.2730390895620398e+06  3.6797844422074445e+06  3.6793508855203437e+06  6.2452156718208529e+06  6.2657642953456892e+06  3.0987137602365268e+06  6.1142836303341696e+06  6.1375375752696274e+06  6.2157259490988785e+06  6.2393689610079415e+06  6.1362296085431045e+06  6.2423311720574880e+06  6.1362134208926223e+06  2.8573587547648479e+06  5.1629437227728274e+06  5.8424703173709773e+06  3.3233496694533709e+06  8.5754121404043806e+05  3.8576520286473022e+06  5.8111552150347652e+06  4.6543522849328546e+06  4.9230440929603484e+06  2.1617826275035152e+06  2.1175408087237054e+06  5.8876244858216681e+06  3.1920258611274664e+06  6.1363684045358812e+06  5.3403018911646940e+06  4.0012749541911315e+06  3.7920801010872913e+06  5.4623105052796984e+06  1.0899539427538831e+06  5.9324153183801435e+06  4.6122315820278386e+06  5.5892919668135373e+06  3.3706750066053295e+06  1.2579964974878263e+06  2.9131135321807293e+06  2.6282720834902013e+06  3.9314714857808561e+06  1.8511109599771954e+06  6.0717291149622677e+06  1.1137861911149151e+06  5.8996801796421334e+06  5.1295663692853581e+06  5.5925401752200518e+06  3.0205675111626647e+06  5.6380205589369889e+06  4.6705653278155318e+06  5.2590037040879587e+06  4.4373470998702049e+06  4.0396294934568899e+06  1.5728080700140395e+06  4.3637818047497664e+06  6.0632081423509177e+06  5.7387947833856354e+06  6.2673456242038338e+06  5.5676082038656361e+06  5.3224710486858729e+06  3.8304889244900905e+06  1.9958200927613368e+06  2.6645469234783826e+06  4.4472885924748369e+06  6.0192367503690999e+06  4.6531582046528189e+06  1.1009551380829480e+06  1.4435896261776502e+06  6.0796243123603715e+06  2.3401782912998041e+06  1.2041534815671030e+06  4.5322643663642993e+06  5.7950565552906590e+06  5.0357382867551697e+06  3.5307421016259654e+06  6.1658484262701310e+06  1.1712529770501114e+06  3.6365539919520663e+06  4.2160725127111459e+06  5.0740814923678264e+06  3.7377224561502072e+06  2.4795181350580589e+06  3.0793764876355594e+06  4.1486220089894072e+06  2.8031386846993025e+06  2.9704679808653267e+06  2.7451497092791423e+06  3.3515979390704371e+06  6.2198392017179374e+06  5.9766224635427175e+06  3.3247634442781126e+06  6.1837635577536728e+06  5.8489836982155237e+06  5.8165630071823513e+06  6.0437607132657245e+06  4.3407716112172473e+06  4.1907588922498962e+06  5.2394612348080594e+06  5.5341727223777389e+06  4.1596459532203600e+06  5.9939444701528708e+06  3.4232221975222682e+06  4.9853833743371926e+06  1.2470450722918708e+06  3.0936695524602220e+06  5.3753069696068745e+06  5.9496203983447934e+06  5.0412050326603008e+06  5.5920753043300221e+06  4.7739065026279986e+06  5.7383218886251813e+06  9.1470917394057498e+05  3.5765519161248757e+06  3.4411678716887254e+06  6.0168491624035016e+06  5.3837698649485884e+06  1.6157858054796923e+06  5.9785919817813681e+06  4.8372060246165097e+06  6.1327407675633598e+06  1.1949025853690172e+06  6.2444892965727625e+06  6.2414929974400681e+06  3.5472995301321279e+06  3.6395009483787245e+06  6.2439818252777793e+06  6.2640719089132743e+06  6.0972335435566157e+06  6.1149392431813907e+06  4.5898179784342544e+06  1.2846663496816866e+06  6.0922504413650669e+06  5.7840217947233822e+06  3.5857591705550831e+06  3.6030315492940028e+06  3.3921237379187923e+06  6.2712175115859173e+06  6.2409374353729812e+06  4.3905381837838776e+06  6.1933139462791057e+06  6.2014625369126964e+06  6.2218975077211838e+06  6.2656915703513836e+06  4.2547446575419419e+06  3.0893932135331701e+06  4.5954487763500838e+06  1.2424940617553846e+06  3.5204666446459983e+06  1.4765567532580451e+06  4.5590065546841882e+06  6.3270241533785071e+06  4.4832150860330686e+06  4.6011347428771500e+06  6.1019125299763242e+06  4.2937364242363553e+06  1.2558493046447067e+06  4.5962208249114975e+06  1.8536293018765901e+06  3.3103548666892787e+06  6.1135595374413189e+06  6.0787919465594478e+06  4.3269918295852253e+06  6.3246262584462576e+06  2.5876661297965040e+06  6.1558416074249465e+06  4.9371120700537767e+06  1.2822396082545293e+06  1.3514943801529524e+06  1.4459391353269836e+06  5.4789046942892168e+06  6.1258164738518726e+06  6.0919737157826247e+06  5.2541566113033378e+06  6.2613161971886149e+06  4.6014956171614714e+06  3.1000658872220619e+06  3.0992157607739163e+06  1.2531634749309458e+06  6.2438017867167974e+06  6.2507728125172751e+06  6.2535245919558462e+06  5.7631632650206788e+06  6.0615510477120774e+06  6.2318110608913088e+06  6.1672120810987363e+06  4.5168079507560944e+06  6.3427057469991930e+06  6.3417690375446109e+06  4.2433316415364053e+06  1.2667446950606862e+06  4.3261734963723728e+06  6.1425122189303078e+06  4.1284682400723458e+06  4.4154857031916399e+06  6.3277413714728439e+06  4.3534918187825875e+06  5.5814984474713793e+06  2.3578751368771801e+06  3.5983123629844682e+06  3.5253706219990519e+06  3.6727297156909411e+06  6.1276267041073823e+06  3.5899169108798704e+06  3.6365290452578235e+06  3.5341632035845132e+06  3.6321850547722080e+06  3.3987217849101834e+06  1.2812914570845154e+06  1.2476754038950983e+06  3.7663578788134451e+06  3.4856488095256346e+06  4.6232398429591656e+06  4.6228831951349089e+06  6.3379072791523915e+06  5.3299020645691333e+06  5.0665258340047160e+06  4.4580817673023930e+06  4.3426369781512814e+06  4.3502621592531987e+06  4.3494911143234810e+06  4.3324894622846888e+06  4.3263287318833815e+06  4.3956836155033698e+06  4.3332070392768336e+06  4.3532419935458330e+06  4.4367546761862887e+06  4.3976769897984406e+06  3.9913718954083794e+06  4.1512610636213580e+06  2.7449694999630237e+06  2.8943092320021754e+06  2.7237880404427378e+06  2.5119403511409275e+06  2.5902769745499440e+06  2.2340422131846226e+06  2.4759770151411113e+06  2.3470805918628583e+06  1.7410117942896120e+06  1.5432485565348351e+06  1.2655503032102860e+06  1.3138934079176085e+06  1.2894461872495469e+06  1.3943268488217166e+06  1.3181024608776441e+06  1.5123490942033757e+06  1.4828216937481668e+06  1.3605597494805329e+06  1.6239753210047581e+06  1.5243572197615537e+06  1.6591566816529664e+06  1.5840076263470978e+06  1.7633341362632054e+06  2.0496027897598189e+06  1.8593316738885506e+06  2.8190754229600555e+06  2.3839380841245516e+06  2.5639876205429849e+06  3.1359232826155140e+06  5.3907343861732474e+06  5.2088669122197963e+06  5.1190115410379255e+06  5.2710219880509144e+06  5.7143171513199406e+06  5.9147010691363141e+06  5.8301355769056780e+06  5.9214614251905689e+06  3.5790554947076957e+06  3.0757035594858630e+06  3.1990083653482115e+06  3.4590854699720922e+06  9.6016320210200280e+05  1.1805951937411476e+06  9.3212810555866605e+05  1.0290409963630227e+06  9.0012078439147992e+05  8.6251646182800119e+05  3.9507990060674096e+06  4.1728901870904784e+06  3.6898416803453765e+06  3.9985188459321717e+06  3.5924005379315913e+06  5.8572154778017448e+06  5.7086366282931995e+06  4.6615836507873507e+06  4.5112680837162314e+06  4.8749795965070259e+06  4.4160833164402777e+06  4.8542707851638095e+06  4.7180112186829364e+06  4.7705702032664027e+06  5.0922747341326326e+06  4.9483287590196738e+06  1.6485622026449207e+06  2.0482217165483315e+06  2.4168912834132523e+06  1.8151134159846497e+06  2.3828167817087867e+06  1.9205701686471824e+06  2.5930727052875366e+06  1.7711868295256391e+06  1.6534737645257590e+06  2.2873373335535121e+06  2.4887650668351743e+06  5.7489071668959949e+06  5.9821688232165119e+06  5.8527724180706963e+06  6.0008850108221648e+06  6.1043423101445381e+06  5.4985276111632017e+06  5.1980181300490964e+06  5.4721290843250928e+06  5.3620973591898121e+06  3.7751250641754442e+06  4.0723444157148618e+06  4.0796933088910724e+06  3.7228203117870847e+06  5.6092158343979623e+06  5.5131922796752341e+06  5.3879515204106495e+06  5.3561746508388985e+06  1.0460883250695409e+06  1.0452979962434779e+06  4.6364096989290481e+06  4.5251871467367243e+06  4.3928006683284706e+06  5.6122052029010663e+06  5.4308622479720265e+06  5.7093915170300547e+06  5.4856722245998951e+06  3.5581933103980119e+06  3.1739337983574546e+06  3.2455635387710342e+06  3.4662226589827668e+06  3.2136359202067461e+06  3.3351097705389773e+06  1.6044460902864540e+06  1.1145588421553124e+06  1.2718582737359011e+06  9.5739708447434334e+05  1.4397993622189208e+06  1.3757341251299430e+06  2.6204817143709455e+06  3.1927397619214612e+06  3.1309435554443542e+06  3.1088518995584212e+06  2.1237060381883131e+06  2.7013906085391329e+06  2.8090727219705689e+06  2.8712025492044040e+06  2.2413487063681781e+06  2.5968516631088038e+06  3.8889042770003490e+06  4.0888619154842496e+06  3.8330271324463743e+06  3.7598565536815827e+06  1.6054560632836719e+06  2.1082025281367064e+06  1.4390110854584868e+06  2.1625252586751184e+06  1.2521505466600121e+06  1.1510123586801116e+06  1.0351761060314147e+06  9.5739940236361045e+05  1.2103965334804580e+06  1.1947084639631424e+06  1.2525101067791409e+06  5.0855483030836703e+06  4.9599092287143003e+06  5.2626697254904350e+06  5.2314460127407182e+06  5.5918091502178526e+06  2.7583686888587419e+06  2.9025851892105234e+06  5.5132728542537522e+06  4.8809859398369137e+06  4.4198637157458020e+06  4.4215902960861390e+06  4.7554248603630252e+06  5.4221736921392167e+06  5.2470777257087827e+06  4.3904283187268367e+06  4.3995778192918682e+06  4.2446837635447681e+06  3.7173696850536359e+06  1.3709225777975048e+06  1.7171512518492136e+06  1.5001777833675700e+06  4.2694344326368254e+06  4.5706636873193951e+06  5.9517423185521271e+06  6.0303005154475505e+06  5.6597599296292430e+06  5.8646110774504887e+06  5.6390475696115689e+06  5.6963898699212940e+06  5.4094768818230964e+06  5.2795070803775275e+06  3.6950587025764994e+06  1.7768879630512502e+06  4.2951402613898255e+06  4.4133645073619224e+06  9.7133209015632560e+05  1.2642285216563377e+06  1.1941949062831940e+06  1.9267856241236147e+06  2.5114602566923224e+06  3.8592074506323454e+06  3.3913864602438309e+06  3.4651758305486673e+06  3.5223634775258545e+06  4.2224894592641275e+06  4.2545905473970743e+06  4.2206992652256303e+06  4.2921098129973123e+06  5.0582694355595298e+06  4.9560577753704907e+06  3.6667011675459887e+06  2.9155700444383896e+06  2.9523953645674405e+06  3.1238238945382382e+06  3.0211896208593505e+06  2.7903152934142943e+06  3.0406137741684844e+06  3.7595202988082143e+06  3.3663919577525142e+06  5.9119912336069355e+06  3.8210827191617335e+06  3.3417672112491406e+06  4.9154865809267312e+06  5.2202994827705519e+06  5.4928938651503231e+06  5.3574244541090447e+06  1.5401071009489631e+06  1.2055774906924141e+06  1.3462290447117877e+06  4.2758178304729946e+06  1.3493406498876028e+06  4.3203625161660239e+06  2.2370461119096112e+06  1.6312878542149661e+06  4.2985385387235330e+06  2.9677179892089963e+06  5.3315986852312135e+06  8.9091518228543957e+05  9.2544985393691610e+05  8.7148676585366414e+05  8.6618238831260276e+05  8.8299298722931161e+05  4.7871923762535993e+06  2.2510154219367700e+06  2.3635535242166296e+06  2.3115612986717322e+06  5.9206565944012227e+06  4.3568661291678967e+06  3.8911942473319988e+06  3.8656468978810417e+06  3.9090875307892314e+06  9.9945467129281117e+05  5.4939048827787908e+06  5.5383788325587204e+06  1.4114674709235437e+06  1.4196053122119962e+06  2.8483564538630405e+06  2.9892767822960885e+06  2.3889647548108706e+06  3.8223644309596461e+06  4.6656891676325863e+06  4.7779473207823709e+06  4.5484547953596348e+06  4.8183070533004664e+06  1.8414085613832450e+06  1.3913234995149910e+06  1.6464072273956800e+06  1.5332340820128741e+06  5.4904845389569793e+06  1.2364136281168347e+06  1.5155461098591143e+06  1.6925166856885334e+06  3.6088927668922599e+06  3.6537375031942148e+06  3.6991550632572006e+06  3.4487688512498010e+06  1.4080248884485268e+06  1.0516145156816789e+06  1.2650086861493362e+06  3.3617764055559770e+06  5.7833981696137581e+06  5.8347470590245118e+06  5.8870603559115240e+06  4.3433837453260766e+06  5.3254602657265458e+06  3.6293737772623058e+06  3.1437237547154441e+06  3.0242929660079018e+06  3.2193364211390717e+06  5.1325307697342709e+06  4.7475493132637432e+06  4.8477185406832583e+06  8.9123446550350124e+05  8.8451444368127629e+05  9.2202226128672436e+05  3.5197064160365006e+06  3.6695225348446881e+06  3.6336517643126762e+06  3.4610536935301307e+06  5.3040714076264575e+06  1.4139258714605274e+06  1.3650375086322192e+06  1.4077038039740690e+06  4.3243121874360815e+06  4.2892143743385049e+06  4.3056278727224283e+06  2.4195954934023800e+06  2.5893426124764802e+06  2.6919428303515147e+06  1.3553242850297350e+06  1.3123912152282733e+06  1.2656222186778921e+06  4.3521602165161883e+06  4.3977795872035837e+06  4.3758757842433667e+06  4.3243963973252466e+06  4.3366622599439444e+06  4.3264657124851979e+06  4.3373309490200300e+06  2.7516485082414001e+06  1.3573287788703700e+06  2.9610653098049844e+06  5.4386434117950033e+06  3.3309192457987317e+06  3.2728132629901841e+06  8.8225769290831313e+05  9.6835073026950378e+05  1.1515179997332566e+06  1.3046026399828121e+06  1.0817787370190267e+06  9.4239793009614781e+05  3.6302273635052782e+06  3.5381346212742850e+06  3.4917988324298421e+06  4.7740943080509529e+06  4.8180188649859605e+06  1.6069141621079992e+06  1.8125350352993002e+06  2.0930724920767839e+06  2.2467498838900137e+06  2.5375795781598631e+06  1.9520098697465782e+06  1.5226714360579690e+06  1.4794188844351384e+06  2.6991492121468191e+06  5.9040780860474063e+06  3.8160456323015993e+06  3.9681856124456907e+06  3.7717260467905053e+06  5.4358761417045267e+06  5.4626467214427777e+06  5.3818703104890296e+06  3.3571300377053185e+06  3.5682539265198689e+06  3.4070209287065100e+06  2.6961621566956281e+06  3.7297479556482187e+06  3.7123803747945749e+06  1.2841893201927673e+06  1.3708078367662609e+06  5.1761045026232768e+06  5.1543437146509010e+06  5.2415726473088814e+06  1.6044414631014364e+06  1.3097157963663726e+06  </DataArray> 
</PointData> 
</Piece>
</UnstructuredGrid>
</VTKFile>