<?xml version="1.0"?>
<VTKFile type="UnstructuredGrid"  version="0.1"  >
<UnstructuredGrid>
<Piece  NumberOfPoints="784" NumberOfCells="1320">
<Points>
<DataArray  type="Float64"  NumberOfComponents="3"  format="ascii">266913.131276 586512.314988 0  266738.13716 587762.325998 0  266363.132677 589012.328643 0  266175.641078 590169.601714 0  265666.575631 591040.7699119999 0  264875.64001 591687.766419 0  264900.636161 591845.049083 0  266088.14152 592012.3229499999 0  265561.959259 592661.17101 0  264288.136855 593037.368683 0  263865.194033 593999.8486949999 0  263850.641856 593236.729596 0  263625.634872 592756.525286 0  262689.574249 593299.848918 0  262475.636737 594003.0907310001 0  261934.554452 594340.929792 0  261725.631329 594932.094409 0  261729.256443 595728.498809 0  262138.136044 595012.330523 0  262288.141035 596262.333669 0  261488.994028 597511.480605 0  261234.15567 598316.338928 0  260815.635063 599014.863821 0  261400.643658 599389.7367680001 0  261322.963374 600022.185065 0  261119.455248 600931.061306 0  261607.436504 601293.0629359999 0  260807.446929 602089.899812 0  260025.642878 602988.868697 0  259613.135827 603937.3854499999 0  259050.643123 604100.987861 0  258411.880065 603988.6335979999 0  257764.357469 604449.872569 0  257971.239668 605320.429125 0  258041.396867 605740.635381 0  257188.143339 606987.394312 0  256038.141198 608112.3554550001 0  254788.141633 609087.4026939999 0  253588.140656 609812.362881 0  252338.135706 609737.4048949999 0  251088.138116 609787.404055 0  249963.12851 610287.399466 0  248613.130524 610462.365857 0  247363.132198 610687.407659 0  246113.130532 610837.411551 0  245832.347438 610918.209918 0  245016.946433 610958.5639439999 0  244313.129646 610762.372259 0  244400.622144 611378.093316 0  243939.669208 612460.8930899999 0  242960.649733 611984.892792 0  242170.381438 611919.647351 0  241888.122919 611112.375656 0  241393.380757 610467.6456149999 0  240594.157528 611306.369822 0  240525.621947 610804.648112 0  240363.123632 610512.3745050001 0  239113.123247 610262.374278 0  239813.12126 609037.412459 0  240588.122952 607812.368199 0  241013.119545 606625.9534560001 0  241454.373249 605724.888025 0  242238.120107 604687.3993 0  243088.121248 603462.362766 0  242860.319451 603007.3932640001 0  241563.116617 603812.361344 0  241778.400913 604327.642217 0  242059.837234 604824.879102 0  241475.620201 604923.2402390001 0  241462.182234 605449.881372 0  240906.219606 605674.888222 0  240241.856192 606891.125066 0  239891.734044 607841.012479 0  239048.653431 608724.889805 0  238118.054545 608974.895967 0  238888.111029 607337.406468 0  239738.119992 606212.362729 0  240288.12044 605687.4075229999 0  240380.212307 604729.521696 0  239347.309632 604603.204501 0  238888.112036 604387.408787 0  237913.11173 604687.401386 0  236784.172023 604499.882783 0  236883.408793 603717.08334 0  236154.933927 603595.565605 0  235688.103943 602912.369264 0  235763.108033 601662.366516 0  236363.110805 600412.35884 0  236738.107995 599162.356577 0  236525.607944 598482.2412899999 0  236138.109208 599362.357613 0  235725.063048 600325.4466510001 0  235091.948926 601408.5220979999 0  235188.10921 600312.366344 0  234375.602405 600833.9674270001 0  234663.109308 599912.358011 0  234138.105122 600062.365644 0  233955.307245 599029.561063 0  233338.103791 598387.401556 0  233988.09795 597862.356384 0  235138.101489 596637.3947750001 0  235563.1039 595387.392428 0  236513.103639 594212.356312 0  237163.10684 592987.3929869999 0  238313.103031 591862.3515540001 0  239513.107028 590812.3512640001 0  240638.102135 589787.387271 0  241463.109549 588587.378486 0  242294.489816 587443.735215 0  242913.101099 586512.341804 0  243544.066915 585474.859604 0  243040.448415 585184.975583 0  242438.10214 585337.38015 0  241313.102353 586562.339499 0  240538.107104 587787.382449 0  240114.641085 588588.939407 0  239388.100256 589437.382238 0  238188.104456 590512.346358 0  236938.100507 591362.349798 0  235813.10453 592537.396388 0  234864.502938 593178.7753880001 0  234463.097651 592862.357267 0  235113.0965 591662.3545979999 0  235713.101522 590412.346099 0  235777.688431 589976.7582779999 0  234943.583145 590706.265132 0  234462.482256 591490.2841159999 0  233801.497784 592112.940187 0  233388.099101 591787.394208 0  234013.093099 590437.393065 0  234776.217248 587148.7548100001 0  235163.093726 586562.3486189999 0  235313.098918 585483.229012 0  235250.59732 584662.298153 0  235588.093896 583337.379493 0  236329.432041 582199.858992 0  237188.096234 581462.3349939999 0  237463.088521 580212.335511 0  238350.592558 579057.652616 0  238591.415797 578574.847681 0  238313.094106 577612.328905 0  239229.696732 577695.769664 0  240195.161018 577513.008613 0  240614.996733 577149.8518770001 0  240663.091715 577412.332622 0  240288.092486 578662.334085 0  239942.357258 579508.095811 0  240438.100019 580212.3334220001 0  241338.095553 580387.375355 0  241238.099828 579137.369157 0  241788.097003 577887.370889 0  241983.554649 577241.9220939999 0  242054.178239 576927.8105029999 0  242588.100699 575737.366175 0  243149.324833 574898.583978 0  243695.278626 573919.517981 0  244268.494418 573724.8454239999 0  244995.134063 573930.2767810001 0  245417.314363 573391.601898 0  243450.599125 571859.479773 0  245776.797908 572599.8353060001 0  246779.639852 572973.285167 0  248034.741935 573186.082054 0  249413.10651 573162.3205520001 0  250496.922226 573271.1521899999 0  251613.105126 573237.3551319999 0  252421.824577 572846.032906 0  253256.245022 572580.4733130001 0  253739.471933 571960.9547369999 0  254174.511864 572149.8346569999 0  254484.944333 571684.194807 0  254384.108649 570891.346712 0  254344.002752 570218.26407 0  255025.609604 570829.0294979999 0  255715.005913 570489.264586 0  256218.846343 570774.828355 0  256834.349083 570508.5908 0  257390.092515 570014.308325 0  257624.431042 568493.478911 0  259355.811717 569380.021819 0  260033.372814 569617.066669 0  262679.741751 570320.699974 0  263289.115756 569524.817815 0  263463.114338 570512.301061 0  264638.198419 570687.3443539999 0  265058.220065 571334.378467 0  265447.561421 572077.90485 0  265488.125257 573137.3446020001 0  265131.937715 573963.293593 0  265432.389648 575093.068786 0  265638.122314 576338.029955 0  265750.630817 577371.8281319999 0  265738.570663 578561.9098850001 0  265875.630866 579139.630549 0  266213.129247 579862.311842 0  266563.130472 581112.314509 0  266238.135356 582362.310259 0  265938.12863 583612.320897 0  265738.131342 584762.3210189999 0  266875.638633 585365.358768 0  264018.7239399826 593650.4646671159 0  262236.3944351029 595831.1252656333 0  241846.246678 605206.1436625 0  240200.622106 608424.8903290001 0  240943.4862974102 610939.7757535663 0  236550.6094 599787.3577085 0  238528.1212051503 608102.9081793013 0  244413.4891967989 572609.5960859474 0  236382.0474488751 598808.3067022427 0  235369.601910944 600933.5380148316 0  235413.099011 591037.3503485 0  235446.2251831186 590266.6553871984 0  240475.5921005 578037.3333535 0  240413.173949154 577324.4280286073 0  240574.037899 606283.0066440001 0  263857.9179445 593618.2891454998 0  264153.4303974913 593343.916675058 0  242042.1833925 604946.7714812499 0  241650.3099635 605465.51584375 0  244613.6985165 572229.6575395 0  236631.8579695 598822.2989335 0  235140.029068 600860.444221 0  241767.7287175 604874.0596705 0  242140.15174975 604817.0853906251 0  234781.8558075 600573.1668855001 0  242091.167571125 604881.9284359375 0  234519.3558565 600373.162719 0  254604.8337712102 583989.0014118921 0  250699.5846056537 594617.3297041012 0  250540.4796469513 602258.2940568649 0  248483.7490186612 580334.7345534252 0  258549.2190328319 577893.951823392 0  257067.0067473103 590016.5327808241 0  243285.0921999099 596333.923437875 0  248333.1386145258 589098.0389905117 0  256142.8445072741 595883.3911551933 0  260245.1368072523 583315.2785712298 0  253472.3380211276 578932.2908163272 0  246432.3347504817 599884.5019511909 0  261555.9240922556 588041.186709004 0  247293.1100123104 605823.8307887657 0  246458.2798550911 593168.8646574575 0  252840.0183145193 588226.5564648228 0  249828.2874404451 584740.7888937403 0  255409.5660975206 600458.8956828594 0  260819.9733392385 574219.403683011 0  252584.2262054711 605722.6603825617 0  254049.8830611471 592547.4852571967 0  250015.4356193061 598425.2225922942 0  245872.072249477 577604.9761853142 0  262002.1583249522 579753.4663046852 0  257732.6630933878 586227.970805314 0  250242.5556457866 577017.3316409125 0  244921.6453001869 581816.6358421432 0  256520.3890639471 580904.824006648 0  240779.0970645865 599524.6679555867 0  257100.1829219198 574459.5922545703 0  239912.2630002034 595231.1172704464 0  244703.0875078634 590068.6945953515 0  242549.5490268674 592874.3693043783 0  251586.0465921376 581796.2215047925 0  246643.189997516 596527.447801719 0  251049.7658069622 591057.6752245198 0  253014.5731561695 596998.6601086652 0  238680.2197353724 584542.2309791476 0  259715.365803504 591937.1938619445 0  254097.157218761 575731.4494927844 0  246806.6408589328 586139.0877599345 0  246136.1179750556 602959.471719323 0  253520.7033332401 602835.180253843 0  244125.4295793909 607538.9817227355 0  252546.8895354472 599881.3279113505 0  258289.0983523553 600397.640191779 0  247518.7952199645 583037.3718217331 0  263140.3959879661 582529.2228421422 0  262894.8586894067 585442.3590432997 0  256968.6320599076 593040.7691844478 0  243573.0187527719 600218.2795730785 0  258888.5766127351 595139.7745218446 0  262588.7569809347 576734.8569237856 0  259318.4257992262 580601.2540325444 0  249963.3812725965 607065.7205847671 0  257494.5307999607 583482.5893534871 0  258906.4757205145 572278.8089438241 0  237751.446593475 587300.5805003279 0  255142.4708720699 604956.7580261135 0  258485.4978753244 597756.9250383095 0  255516.7820591553 587791.39641967 0  239758.4692108706 601926.8203218657 0  255873.0092222999 577739.5085867504
[...]
<PointData  Scalars="f_32-0"> 
<DataArray  type="Float64"  Name="f_32-0"  format="ascii">2.9490300737135499e+06  3.0846985052067190e+06  3.2447901301761870e+06  3.3746179058133233e+06  3.4652636402201289e+06  3.5980792642944222e+06  3.6380724377112938e+06  3.6628783601837978e+06  3.6647545865969905e+06  3.7041132949547968e+06  3.7159301560307690e+06  3.7162218542439938e+06  3.7553096173180230e+06  4.0098725615734537e+06  4.1699797780819661e+06  4.3132113127049273e+06  4.5035564900968913e+06  4.7075555133458460e+06  4.7308936805426572e+06  4.7621000837042546e+06  4.9216187513768673e+06  5.0453794447765378e+06  5.1842226989332689e+06  5.2578929655006332e+06  5.2932870982005270e+06  5.3697209085371587e+06  5.3917373338938905e+06  5.4320640925504593e+06  5.5140077271414008e+06  5.5708580341089778e+06  5.5889717030666964e+06  5.6399497877065884e+06  5.7625039383439571e+06  5.8571742166760974e+06  5.8739456441586977e+06  5.9471155859012865e+06  6.0269573416596511e+06  6.0966678172978507e+06  6.1420917547225719e+06  6.1825498759144219e+06  6.2401217752889255e+06  6.2932839092974393e+06  6.3417711454520896e+06  6.3855296294621630e+06  6.4243042454215111e+06  6.4322861331769070e+06  6.4522612239586813e+06  6.4759155837563705e+06  6.4922298075345820e+06  6.4992680186409503e+06  6.5011514653437659e+06  6.5029039794376194e+06  6.5033032650971469e+06  6.5071426561894836e+06  6.5132382303725621e+06  6.5128436120554656e+06  6.5130292140368344e+06  6.5153290933746370e+06  6.5096886556827556e+06  6.4894118325631814e+06  6.4630020044904295e+06  6.4385884969005482e+06  6.3952802425329825e+06  6.3182923411419727e+06  6.2963173372738361e+06  6.3491756735331407e+06  6.3704216260070233e+06  6.3763076612410387e+06  6.3824663380768094e+06  6.3923603642129013e+06  6.4066586029139459e+06  6.4589072026458224e+06  6.4757689566785581e+06  6.4836321676885998e+06  6.4852066327130785e+06  6.4767069491143515e+06  6.4511915807522815e+06  6.4211264600579990e+06  6.3787964037350500e+06  6.3664437530246722e+06  6.3663497446478056e+06  6.3683645941150449e+06  6.3687892509079715e+06  6.3660538603508519e+06  6.3640466693379842e+06  6.3615502486121794e+06  6.3518075202966528e+06  6.3260769334296817e+06  6.2836898101214403e+06  6.2656912097263187e+06  6.2840307270334093e+06  6.2936475649576085e+06  6.2968847916719941e+06  6.2942170523092486e+06  6.2953548420927376e+06  6.2925312054303503e+06  6.2919041730647292e+06  6.2878289561110018e+06  6.2857833036882514e+06  6.2810202052394850e+06  6.2405091649560034e+06  6.1922340072649466e+06  6.1207767214491656e+06  6.0408462715870971e+06  5.9297706111364653e+06  5.7737462365113003e+06  5.5679734103141790e+06  5.3328970940419454e+06  5.0839639516576547e+06  4.8548682057895521e+06  4.5394788668332016e+06  4.4105158176841075e+06  4.4095393528547958e+06  4.5057076464587608e+06  4.5798951888151225e+06  4.6136696893458171e+06  4.6464048752114177e+06  4.6862987280317340e+06  4.7161997587718694e+06  4.7375363573024301e+06  4.7422389443722796e+06  4.7422844955724441e+06  4.7350261080436083e+06  4.7153197578883134e+06  4.7081752168584093e+06  4.7226029647253174e+06  4.7319365944006694e+06  4.7348872507371418e+06  4.7348880970766712e+06  4.7252502458476825e+06  4.6619837916597892e+06  4.6404977202593787e+06  4.6014895560342912e+06  4.5771476844649119e+06  4.5421055600047624e+06  4.5033219931152398e+06  4.4581996521901749e+06  4.4205170796806589e+06  4.4038440859499164e+06  4.4047799417725680e+06  4.4072388177644191e+06  4.4067492270579683e+06  4.4077999470423125e+06  4.4084541357461270e+06  4.4083728301852942e+06  4.4028618821546324e+06  4.3824445277795279e+06  4.3117985753572136e+06  4.1175414968951889e+06  3.8999314269613079e+06  3.7384162373107462e+06  3.6543458158528465e+06  3.6206988407564908e+06  3.4935186123959566e+06  3.4013796563525060e+06  3.3256179531841124e+06  3.3011885430380553e+06  3.2223719902104381e+06  3.1247288211254408e+06  3.1078174666340747e+06  3.0963129735631868e+06  3.0248103654774902e+06  2.8272455171817457e+06  2.5286948459083289e+06  2.2408337120494014e+06  1.8795299525159702e+06  1.6378970614134518e+06  1.4704340779458692e+06  1.3970729198961677e+06  1.3667570811093468e+06  1.3273537440370366e+06  1.3182979100793726e+06  1.3184559617401126e+06  1.3146759823207727e+06  1.3087263588090425e+06  1.3060332838733078e+06  1.3134411686699060e+06  1.3362802564915305e+06  1.3586729213426397e+06  1.3554551036301570e+06  1.3573889957703848e+06  1.3927947439164019e+06  1.4030676086428070e+06  1.4005119167646875e+06  1.4056913565042682e+06  1.4033191327473046e+06  1.3961329022449376e+06  1.3796139532377007e+06  1.3540436653664983e+06  1.3335242916994647e+06  1.3473716263497046e+06  1.3902356337449262e+06  1.4958729404765011e+06  1.5854729051987384e+06  1.7033345306133502e+06  1.8649940736124867e+06  2.0490959845733754e+06  2.3177240723454389e+06  2.6550314198452546e+06  2.8535701921372744e+06  3.7157442480507097e+06  4.7405166633537533e+06  6.4195918133815471e+06  6.5017674957261989e+06  6.5125304172035763e+06  6.3066200701478263e+06  6.4829669006442539e+06  3.1070284821292418e+06  6.2739083350912957e+06  6.2962366212136438e+06  4.7266583371014986e+06  4.7133342434995305e+06  4.4070222220258452e+06  4.4083163461850183e+06  6.4372444568656487e+06  3.7157166730932123e+06  3.7148189248744030e+06  6.4080891541801123e+06  6.4298877000697851e+06  3.1070363296122253e+06  6.2714775467378162e+06  6.2962385004900657e+06  6.3772384282651078e+06  6.4018833233936103e+06  6.2948644024264291e+06  6.4050276410869462e+06  6.2948474107320225e+06  2.5594486612638277e+06  5.2242270393476281e+06  5.9562307571963081e+06  3.2676284798478000e+06  8.2597234166789416e+05  3.6295238773491951e+06  5.9483942127441522e+06  4.6963877548778420e+06  4.9336731020353623e+06  2.0292204361150998e+06  1.5575181633753108e+06  6.0230707266520187e+06  3.1290683662875383e+06  6.2907927925269967e+06  5.4402905990500087e+06  3.8911039709270592e+06  3.7612272431641021e+06  5.4695428962452253e+06  1.1121418972591795e+06  6.0648156555150980e+06  4.5974673631039215e+06  5.6789685157285482e+06  3.3743224746901509e+06  1.1323587739462473e+06  2.4521078505248940e+06  2.3658183497016234e+06  3.9588003885325342e+06  1.5974865910168116e+06  6.2257004084883081e+06  1.0694219456102573e+06  6.0449846975797694e+06  5.2218551703931466e+06  5.7179542657414060e+06  2.8624367153028990e+06  5.7563889825758571e+06  4.6865345550749814e+06  5.2837918970846403e+06  4.5108587784823338e+06  4.0028669540295755e+06  1.1477397387717189e+06  4.4001088177721500e+06  6.2122885600400660e+06  5.8258040729437070e+06  6.4315165100157605e+06  5.6078635905975010e+06  5.3747938150722887e+06  3.8332196326741157e+06  1.9576793640741254e+06  2.6543397926378399e+06  4.4203642321234439e+06  6.1683115918053063e+06  4.6767157167411931e+06  1.0955630531933825e+06  1.2701490278788260e+06  6.2294658131335843e+06  2.0327559291579712e+06  1.2536432145502635e+06  4.6244704997520437e+06  5.9096364142292952e+06  5.0720698185950192e+06  3.1547631815273133e+06  6.3249967261898536e+06  9.2594289144669927e+05  3.6285661064471444e+06  4.2632176047345279e+06  5.1422957136209868e+06  3.7673492778713685e+06  2.2167572984452439e+06  3.1045152165412223e+06  4.0216606902333498e+06  2.5445182581784306e+06  2.9199635865313071e+06  2.5993002433021083e+06  3.0841371200303202e+06  6.3810031638951758e+06  6.1127498738461146e+06  3.1969117567156721e+06  6.3423581509634424e+06  5.9857493585148267e+06  5.9361149266219642e+06  6.1970167349852994e+06  4.4053210424582893e+06  4.2250216607409520e+06  5.2239849357577143e+06  5.6017002015514197e+06  4.1400081775360419e+06  6.1334773797463132e+06  3.1629976727950033e+06  5.0133980108732414e+06  1.3321318315647889e+06  3.0200869348009587e+06  5.4682937515695682e+06  6.0968483710509799e+06  5.1193795917127738e+06  5.7142374551090077e+06  4.8427292460179701e+06  5.8743310774172889e+06  9.0095909412595502e+05  3.5813008806495825e+06  3.3855114433244695e+06  6.1691299361969745e+06  5.4926913465154497e+06  1.5937283049003668e+06  6.1202990541929239e+06  4.8623842045477834e+06  6.2904795365218231e+06  1.2521390407201452e+06  6.4072606630079020e+06  6.4041176288459226e+06  3.5739213021196108e+06  3.6715224205323108e+06  6.4067746355031719e+06  6.4281464733175905e+06  6.2534097196354996e+06  6.2724583407893218e+06  4.6989320501714740e+06  1.2495598179800424e+06  6.2450112136992468e+06  5.9022871401608372e+06  3.6166427464680006e+06  3.6382199529845086e+06  3.4178695779287061e+06  6.4356609012308586e+06  6.4035468142026141e+06  4.4095084379144283e+06  6.3538687009883439e+06  6.3616346705040308e+06  6.3833158055835953e+06  6.4299004486201014e+06  4.2967979438794358e+06  3.0805595065029613e+06  4.7051306806583060e+06  1.2682943916414762e+06  3.5505617976103551e+06  1.4821273821210607e+06  4.6594836004404249e+06  6.4947136033073524e+06  4.5670381119969180e+06  4.7133847119236086e+06  6.2584619401181992e+06  4.3423744423274845e+06  1.3306585439155926e+06  4.7069793528358070e+06  1.5617557387041915e+06  3.3287549949489669e+06  6.2709697703362154e+06  6.2343882224410074e+06  4.3948346664266372e+06  6.4922016891961740e+06  2.4410183278036052e+06  6.3148590943861613e+06  4.9855896281638034e+06  1.3811375984035595e+06  1.3083339043919335e+06  1.2781529230384042e+06  5.5621309507774021e+06  6.2812327265138179e+06  6.2457994315098710e+06  5.3192636184314089e+06  6.4251672290033260e+06  4.6369201720212940e+06  3.1065270843197121e+06  3.1057341220726678e+06  1.3088185369071031e+06  6.4065881490095500e+06  6.4139863360751681e+06  6.4169042656113897e+06  5.8792110849560006e+06  6.2160247510455372e+06  6.3939054000184396e+06  6.3248252623128602e+06  4.6034167542339033e+06  6.5112644060256584e+06  6.5102719531299295e+06  4.2995460414133864e+06  1.2996075001932781e+06  4.3982276611635834e+06  6.2984460195126077e+06  4.1480121225797380e+06  4.4893183907525036e+06  6.4955115746012563e+06  4.4131030848744009e+06  5.6685772280977508e+06  2.3712038978392454e+06  3.6302868633487136e+06  3.5552270732082045e+06  3.7064231809602431e+06  6.2858066469175946e+06  3.6262606890031882e+06  3.6745276129138125e+06  3.5689078583123083e+06  3.6691180816957052e+06  3.4361268045097296e+06  1.3796228424561825e+06  1.3298961716611397e+06  3.7829294936285205e+06  3.5131168782784697e+06  4.7408077887804881e+06  4.7403531304704035e+06  6.5062036390027013e+06  5.4387723469000841e+06  5.1572071684256056e+06  4.5074265957446238e+06  4.3876154148456324e+06  4.3974641713650888e+06  4.4004558281214088e+06  4.3794660606453577e+06  4.3755877207428571e+06  4.4559871654190868e+06  4.3840431047312403e+06  4.4091161830288386e+06  4.5064113736009821e+06  4.4597606501349369e+06  4.0294492539185635e+06  4.1993271184419580e+06  2.6804155642893990e+06  2.8503351213266281e+06  2.6467708258106783e+06  2.3970714057555208e+06  2.4811398210232016e+06  2.0654996123353376e+06  2.3363732253969037e+06  2.1764926731703063e+06  1.5478240300773261e+06  1.3989235278460528e+06  1.3236500545839667e+06  1.3649557540407397e+06  1.3394689768149313e+06  1.4310997843791957e+06  1.3610412009875283e+06  1.5388213362648301e+06  1.5047909374851717e+06  1.3944519995816210e+06  1.6482164540018649e+06  1.5444868159178232e+06  1.6722321596251882e+06  1.6038701380613355e+06  1.7787204106919421e+06  2.0584553831732280e+06  1.8722851474770240e+06  2.3390697419656138e+06  2.1112668637233754e+06  2.2043667143518729e+06  2.8359714421558310e+06  5.4664930526554594e+06  5.2579921079698280e+06  5.1845967495820336e+06  5.3491621249928512e+06  5.7976515798140839e+06  6.0407812834950853e+06  5.9461079783268878e+06  6.0501904953859923e+06  3.5586849501025570e+06  2.9451310026687621e+06  3.1303558419777015e+06  3.4394791828476419e+06  9.1708846631223545e+05  9.8299484178325615e+05  9.1445341268772748e+05  9.3425729228805960e+05  8.4854624443361338e+05  8.3930891283033846e+05  3.8309874145165184e+06  4.0748523489247020e+06  3.3602489641196420e+06  3.8077463685884234e+06  3.3037982865471030e+06  5.9990198160081087e+06  5.8404420274861474e+06  4.6911634162593819e+06  4.5506283721306976e+06  4.9303880337574305e+06  4.4309613824634692e+06  4.9155716598896338e+06  4.7762019015245065e+06  4.7744795362948729e+06  5.1004388816819591e+06  4.9619983407878932e+06  1.5103100856223104e+06  1.9667155351045288e+06  2.3501432048147763e+06  1.6598357416101904e+06  1.8570416365487133e+06  1.5511439354037179e+06  2.2678415806984482e+06  1.0972921422819879e+06  1.1169006992797931e+06  1.9117988527521845e+06  2.0473036832970064e+06  5.8663598089083014e+06  6.1248552738238061e+06  5.9814271953462400e+06  6.1463805072525274e+06  6.2562187214725483e+06  5.6084209839583673e+06  5.2877218622362548e+06  5.5841808634636169e+06  5.4669316374768047e+06  3.5529051039050580e+06  3.9448863985587908e+06  4.0223659995723669e+06  3.5416406167959841e+06  5.6557872902635662e+06  5.5212599777186774e+06  5.4163607096521398e+06  5.3395608995626764e+06  1.0438510889572657e+06  1.0505687373119581e+06  4.6337682058631778e+06  4.4971312591586011e+06  4.3341221652711714e+06  5.7198680774423378e+06  5.4877510321460674e+06  5.8145679775651982e+06  5.5789835905938540e+06  3.5773663490267741e+06  3.1543648820086331e+06  3.2211504092584420e+06  3.4695369808011227e+06  3.2098531607653624e+06  3.3484194131136378e+06  1.5090895257987434e+06  1.0601460503697414e+06  1.1103854423584689e+06  9.3177732988940366e+05  1.3661424031248351e+06  1.3244297617683462e+06  2.2156514721663971e+06  2.6851989117815234e+06  2.7509752534922040e+06  2.6171088602976394e+06  1.5980917496208355e+06  2.4096900262682699e+06  2.6838933339296947e+06  2.7220833459497662e+06  1.8712438366986450e+06  2.3914830977719105e+06  3.9059136891549630e+06  4.1270020841714689e+06  3.8611691242748569e+06  3.7777076939650201e+06  1.3956616207826887e+06  1.8579657126144648e+06  1.1202448420563918e+06  1.8872842948418891e+06  1.0809450248187792e+06  1.1603448806617532e+06  9.5473495567504992e+05  9.4768689948666946e+05  1.1687937418497980e+06  1.1882608468106764e+06  1.1528743522072013e+06  5.1714570061757537e+06  5.0409067889847821e+06  5.3636972860971065e+06  5.3325362379116062e+06  5.7157851492262380e+06  2.5356634159723208e+06  2.6948551066412632e+06  5.6198691505837515e+06  4.9263445145267313e+06  4.3814208618461378e+06  4.4168783997617727e+06  4.7759427189539820e+06  5.4456890100503638e+06  5.2467988116150592e+06  4.4585386085258406e+06  4.4662031963442676e+06  4.2050763657396287e+06  3.5848347163556484e+06  9.7495579170582222e+05  1.3450948809514856e+06  1.2236979391250515e+06  4.2847211533626653e+06  4.6237721757625621e+06  6.0892513804450715e+06  6.1751558431840613e+06  5.7185828883620026e+06  5.9813113930558627e+06  5.7089637104135901e+06  5.7867283022717489e+06  5.4036001819564216e+06  5.2877024326218562e+06  3.6969373628422501e+06  1.7388159675198460e+06  4.2132266920932736e+06  4.4087075973667530e+06  9.5998996425668139e+05  1.2608742619218810e+06  1.2092485322287686e+06  1.7290830532453724e+06  2.2551736629638732e+06  3.6231867658798937e+06  2.9641886570780696e+06  3.1294825405472424e+06  3.4274304506151099e+06  4.2661120940443715e+06  4.3022142269273698e+06  4.2718087107172236e+06  4.3452292418318456e+06  5.1318777594818436e+06  5.0039725053925049e+06  3.6865973832955193e+06  2.7252382203337573e+06  2.7950963137458726e+06  2.9979002841435918e+06  2.9561570955721410e+06  2.6972094381886944e+06  2.8180541020356836e+06  3.6888971161354152e+06  3.1837941671563322e+06  6.0421444770710357e+06  3.7205056205597818e+06  3.3171741569643933e+06  4.9898324998806994e+06  5.3152757214982929e+06  5.6087979451902779e+06  5.4666947796805827e+06  1.5310825393582545e+06  1.2492983394176939e+06  1.2557532726790360e+06  4.3210407141668256e+06  1.3669164014946462e+06  4.3740537671901053e+06  1.9866183025538714e+06  1.3872774440604034e+06  4.3556512032761462e+06  2.5600382535225255e+06  5.4094529934995426e+06  8.5950671876931994e+05  8.6381388288063125e+05  8.4778023918879265e+05  8.3001588850619888e+05  8.6304496377685759e+05  4.8470035592858577e+06  1.6593853905384724e+06  1.9211848574044993e+06  1.7918390459450486e+06  6.0570276511516180e+06  4.3231783311849898e+06  3.7316037282285076e+06  3.7218857736614058e+06  3.8010262517285692e+06  9.9653563650449144e+05  5.5762652479712768e+06  5.6302194180574426e+06  1.2651382392153889e+06  1.3018156332541241e+06  2.3441431792085110e+06  2.4656360888278703e+06  1.9857300601346816e+06  3.8394140237877872e+06  4.6884361554180551e+06  4.8096529258346744e+06  4.5538223409538502e+06  4.8517002596416930e+06  1.3015900973513601e+06  1.1023819274742370e+06  1.2407409094585460e+06  1.1868588275579021e+06  5.5056480123437447e+06  1.0739112811907635e+06  1.3272517586323263e+06  1.5122758568953569e+06  3.2475814578341381e+06  3.3565218281213669e+06  3.3946628351105289e+06  3.0168199253832418e+06  9.8420231557697407e+05  9.2379085352515103e+05  9.4668969088931580e+05  2.9997530244571920e+06  5.9017444674426746e+06  5.9591817269224022e+06  6.0165343175643552e+06  4.4051037297170758e+06  5.3091483336136471e+06  3.4617575095102685e+06  3.0713936009794213e+06  2.9126614061896927e+06  3.1733185391767919e+06  5.2194854674425973e+06  4.8117217985057514e+06  4.9196104922688901e+06  8.6996021022622660e+05  8.6565443969828589e+05  9.0901245653303165e+05  3.5235107786603030e+06  3.6814058403962296e+06  3.6365566847216133e+06  3.4530401405650266e+06  5.4063490872436939e+06  1.4340888100604885e+06  1.3652259036361224e+06  1.4185243186123436e+06  4.3763741558176121e+06  4.3397803148923349e+06  4.3566448128172904e+06  2.1796604597416651e+06  2.4146634665439110e+06  2.5729057461029910e+06  1.1780019983729224e+06  1.3462577829979123e+06  1.2818627255822811e+06  4.4097201026658826e+06  4.4618862519384306e+06  4.4363402627991382e+06  4.3806935388147272e+06  4.3932470245277723e+06  4.3846035829643803e+06  4.3920339406225421e+06  2.6673249119540104e+06  1.3840250165623159e+06  2.4638253954866095e+06  5.5235939922803259e+06  3.2902379532285770e+06  3.2287298020247254e+06  8.5729324481676798e+05  8.7306915118898347e+05  1.0118524146691893e+06  1.1190525037565813e+06  9.0586085701588937e+05  8.9416484211922274e+05  3.2972548294308325e+06  3.1475073170539537e+06  3.1298582341924999e+06  4.8116356741534220e+06  4.8844591578881564e+06  1.4842522114610572e+06  1.7219272637304848e+06  1.4179170840281111e+06  1.6825799923486938e+06  2.1537857851181985e+06  1.2945777499426438e+06  1.1134744260287890e+06  9.8351284384590923e+05  2.3892694342355002e+06  6.0372385139667680e+06  3.5825386282822499e+06  3.7910150428586164e+06  3.6347808621488470e+06  5.4253239820516165e+06  5.4606204034824595e+06  5.3647755737076439e+06  3.3481432106057429e+06  3.5808324870535377e+06  3.3981699869932435e+06  2.5560594599559698e+06  3.7403590250336197e+06  3.7311185355922789e+06  1.0126048159507150e+06  1.1422696955230650e+06  5.2699150645378241e+06  5.2448815585167790e+06  5.3397202727845516e+06  1.2755830465212255e+06  1.3176317066075932e+06  </DataArray> 
</PointData> 
</Piece>
</UnstructuredGrid>
</VTKFile>