<?xml version="1.0"?>
<VTKFile type="UnstructuredGrid"  version="0.1"  >
<UnstructuredGrid>
<Piece  NumberOfPoints="784" NumberOfCells="1320">
<Points>
<DataArray  type="Float64"  NumberOfComponents="3"  format="ascii">266913.131276 586512.314988 0  266738.13716 587762.325998 0  266363.132677 589012.328643 0  266175.641078 590169.601714 0  265666.575631 591040.7699119999 0  264875.64001 591687.766419 0  264900.636161 591845.049083 0  266088.14152 592012.3229499999 0  265561.959259 592661.17101 0  264288.136855 593037.368683 0  263865.194033 593999.8486949999 0  263850.641856 593236.729596 0  263625.634872 592756.525286 0  262689.574249 593299.848918 0  262475.636737 594003.0907310001 0  261934.554452 594340.929792 0  261725.631329 594932.094409 0  261729.256443 595728.498809 0  262138.136044 595012.330523 0  262288.141035 596262.333669 0  261488.994028 597511.480605 0  261234.15567 598316.338928 0  260815.635063 599014.863821 0  261400.643658 599389.7367680001 0  261322.963374 600022.185065 0  261119.455248 600931.061306 0  261607.436504 601293.0629359999 0  260807.446929 602089.899812 0  260025.642878 602988.868697 0  259613.135827 603937.3854499999 0  259050.643123 604100.987861 0  258411.880065 603988.6335979999 0  257764.357469 604449.872569 0  257971.239668 605320.429125 0  258041.396867 605740.635381 0  257188.143339 606987.394312 0  256038.141198 608112.3554550001 0  254788.141633 609087.4026939999 0  253588.140656 609812.362881 0  252338.135706 609737.4048949999 0  251088.138116 609787.404055 0  249963.12851 610287.399466 0  248613.130524 610462.365857 0  247363.132198 610687.407659 0  246113.130532 610837.411551 0  245832.347438 610918.209918 0  245016.946433 610958.5639439999 0  244313.129646 610762.372259 0  244400.622144 611378.093316 0  243939.669208 612460.8930899999 0  242960.649733 611984.892792 0  242170.381438 611919.647351 0  241888.122919 611112.375656 0  241393.380757 610467.6456149999 0  240594.157528 611306.369822 0  240525.621947 610804.648112 0  240363.123632 610512.3745050001 0  239113.123247 610262.374278 0  239813.12126 609037.412459 0  240588.122952 607812.368199 0  241013.119545 606625.9534560001 0  241454.373249 605724.888025 0  242238.120107 604687.3993 0  243088.121248 603462.362766 0  242860.319451 603007.3932640001 0  241563.116617 603812.361344 0  241778.400913 604327.642217 0  242059.837234 604824.879102 0  241475.620201 604923.2402390001 0  241462.182234 605449.881372 0  240906.219606 605674.888222 0  240241.856192 606891.125066 0  239891.734044 607841.012479 0  239048.653431 608724.889805 0  238118.054545 608974.895967 0  238888.111029 607337.406468 0  239738.119992 606212.362729 0  240288.12044 605687.4075229999 0  240380.212307 604729.521696 0  239347.309632 604603.204501 0  238888.112036 604387.408787 0  237913.11173 604687.401386 0  236784.172023 604499.882783 0  236883.408793 603717.08334 0  236154.933927 603595.565605 0  235688.103943 602912.369264 0  235763.108033 601662.366516 0  236363.110805 600412.35884 0  236738.107995 599162.356577 0  236525.607944 598482.2412899999 0  236138.109208 599362.357613 0  235725.063048 600325.4466510001 0  235091.948926 601408.5220979999 0  235188.10921 600312.366344 0  234375.602405 600833.9674270001 0  234663.109308 599912.358011 0  234138.105122 600062.365644 0  233955.307245 599029.561063 0  233338.103791 598387.401556 0  233988.09795 597862.356384 0  235138.101489 596637.3947750001 0  235563.1039 595387.392428 0  236513.103639 594212.356312 0  237163.10684 592987.3929869999 0  238313.103031 591862.3515540001 0  239513.107028 590812.3512640001 0  240638.102135 589787.387271 0  241463.109549 588587.378486 0  242294.489816 587443.735215 0  242913.101099 586512.341804 0  243544.066915 585474.859604 0  243040.448415 585184.975583 0  242438.10214 585337.38015 0  241313.102353 586562.339499 0  240538.107104 587787.382449 0  240114.641085 588588.939407 0  239388.100256 589437.382238 0  238188.104456 590512.346358 0  236938.100507 591362.349798 0  235813.10453 592537.396388 0  234864.502938 593178.7753880001 0  234463.097651 592862.357267 0  235113.0965 591662.3545979999 0  235713.101522 590412.346099 0  235777.688431 589976.7582779999 0  234943.583145 590706.265132 0  234462.482256 591490.2841159999 0  233801.497784 592112.940187 0  233388.099101 591787.394208 0  234013.093099 590437.393065 0  234776.217248 587148.7548100001 0  235163.093726 586562.3486189999 0  235313.098918 585483.229012 0  235250.59732 584662.298153 0  235588.093896 583337.379493 0  236329.432041 582199.858992 0  237188.096234 581462.3349939999 0  237463.088521 580212.335511 0  238350.592558 579057.652616 0  238591.415797 578574.847681 0  238313.094106 577612.328905 0  239229.696732 577695.769664 0  240195.161018 577513.008613 0  240614.996733 577149.8518770001 0  240663.091715 577412.332622 0  240288.092486 578662.334085 0  239942.357258 579508.095811 0  240438.100019 580212.3334220001 0  241338.095553 580387.375355 0  241238.099828 579137.369157 0  241788.097003 577887.370889 0  241983.554649 577241.9220939999 0  242054.178239 576927.8105029999 0  242588.100699 575737.366175 0  243149.324833 574898.583978 0  243695.278626 573919.517981 0  244268.494418 573724.8454239999 0  244995.134063 573930.2767810001 0  245417.314363 573391.601898 0  243450.599125 571859.479773 0  245776.797908 572599.8353060001 0  246779.639852 572973.285167 0  248034.741935 573186.082054 0  249413.10651 573162.3205520001 0  250496.922226 573271.1521899999 0  251613.105126 573237.3551319999 0  252421.824577 572846.032906 0  253256.245022 572580.4733130001 0  253739.471933 571960.9547369999 0  254174.511864 572149.8346569999 0  254484.944333 571684.194807 0  254384.108649 570891.346712 0  254344.002752 570218.26407 0  255025.609604 570829.0294979999 0  255715.005913 570489.264586 0  256218.846343 570774.828355 0  256834.349083 570508.5908 0  257390.092515 570014.308325 0  257624.431042 568493.478911 0  259355.811717 569380.021819 0  260033.372814 569617.066669 0  262679.741751 570320.699974 0  263289.115756 569524.817815 0  263463.114338 570512.301061 0  264638.198419 570687.3443539999 0  265058.220065 571334.378467 0  265447.561421 572077.90485 0  265488.125257 573137.3446020001 0  265131.937715 573963.293593 0  265432.389648 575093.068786 0  265638.122314 576338.029955 0  265750.630817 577371.8281319999 0  265738.570663 578561.9098850001 0  265875.630866 579139.630549 0  266213.129247 579862.311842 0  266563.130472 581112.314509 0  266238.135356 582362.310259 0  265938.12863 583612.320897 0  265738.131342 584762.3210189999 0  266875.638633 585365.358768 0  264018.7239399826 593650.4646671159 0  262236.3944351029 595831.1252656333 0  241846.246678 605206.1436625 0  240200.622106 608424.8903290001 0  240943.4862974102 610939.7757535663 0  236550.6094 599787.3577085 0  238528.1212051503 608102.9081793013 0  244413.4891967989 572609.5960859474 0  236382.0474488751 598808.3067022427 0  235369.601910944 600933.5380148316 0  235413.099011 591037.3503485 0  235446.2251831186 590266.6553871984 0  240475.5921005 578037.3333535 0  240413.173949154 577324.4280286073 0  240574.037899 606283.0066440001 0  263857.9179445 593618.2891454998 0  264153.4303974913 593343.916675058 0  242042.1833925 604946.7714812499 0  241650.3099635 605465.51584375 0  244613.6985165 572229.6575395 0  236631.8579695 598822.2989335 0  235140.029068 600860.444221 0  241767.7287175 604874.0596705 0  242140.15174975 604817.0853906251 0  234781.8558075 600573.1668855001 0  242091.167571125 604881.9284359375 0  234519.3558565 600373.162719 0  254604.8337712102 583989.0014118921 0  250699.5846056537 594617.3297041012 0  250540.4796469513 602258.2940568649 0  248483.7490186612 580334.7345534252 0  258549.2190328319 577893.951823392 0  257067.0067473103 590016.5327808241 0  243285.0921999099 596333.923437875 0  248333.1386145258 589098.0389905117 0  256142.8445072741 595883.3911551933 0  260245.1368072523 583315.2785712298 0  253472.3380211276 578932.2908163272 0  246432.3347504817 599884.5019511909 0  261555.9240922556 588041.186709004 0  247293.1100123104 605823.8307887657 0  246458.2798550911 593168.8646574575 0  252840.0183145193 588226.5564648228 0  249828.2874404451 584740.7888937403 0  255409.5660975206 600458.8956828594 0  260819.9733392385 574219.403683011 0  252584.2262054711 605722.6603825617 0  254049.8830611471 592547.4852571967 0  250015.4356193061 598425.2225922942 0  245872.072249477 577604.9761853142 0  262002.1583249522 579753.4663046852 0  257732.6630933878 586227.970805314 0  250242.5556457866 577017.3316409125 0  244921.6453001869 581816.6358421432 0  256520.3890639471 580904.824006648 0  240779.0970645865 599524.6679555867 0  257100.1829219198 574459.5922545703 0  239912.2630002034 595231.1172704464 0  244703.0875078634 590068.6945953515 0  242549.5490268674 592874.3693043783 0  251586.0465921376 581796.2215047925 0  246643.189997516 596527.447801719 0  251049.7658069622 591057.6752245198 0  253014.5731561695 596998.6601086652 0  238680.2197353724 584542.2309791476 0  259715.365803504 591937.1938619445 0  254097.157218761 575731.4494927844 0  246806.6408589328 586139.0877599345 0  246136.1179750556 602959.471719323 0  253520.7033332401 602835.180253843 0  244125.4295793909 607538.9817227355 0  252546.8895354472 599881.3279113505 0  258289.0983523553 600397.640191779 0  247518.7952199645 583037.3718217331 0  263140.3959879661 582529.2228421422 0  262894.8586894067 585442.3590432997 0  256968.6320599076 593040.7691844478 0  243573.0187527719 600218.2795730785 0  258888.5766127351 595139.7745218446 0  262588.7569809347 576734.8569237856 0  259318.4257992262 580601.2540325444 0  249963.3812725965 607065.7205847671 0  257494.5307999607 583482.5893534871 0  258906.4757205145 572278.8089438241 0  237751.446593475 587300.5805003279 0  255142.4708720699 604956.7580261135 0  258485.4978753244 597756.9250383095 0  255516.7820591553 587791.39641967 0  239758.4692108706 601926.8203218657 0  255873.0092222999 577739.5085867504
[...]
<PointData  Scalars="f_32-0"> 
<DataArray  type="Float64"  Name="f_32-0"  format="ascii">7.7533366734995125e+06  7.8081872190088872e+06  7.8674074423603555e+06  7.9148446808365900e+06  7.9446328224645248e+06  7.9892587398851784e+06  8.0082224704976231e+06  8.0288792648977237e+06  8.0273431904105702e+06  8.0282038132048110e+06  8.0350817051463388e+06  8.0315130512228906e+06  8.0295884282912184e+06  8.0978373569897879e+06  8.1672175557463095e+06  8.2411684482800886e+06  8.3593579658590779e+06  8.5118638593602236e+06  8.5351287889658678e+06  8.5561700593867842e+06  8.6739171339155510e+06  8.7716602743694931e+06  8.8895225051174331e+06  8.9588804958854709e+06  8.9917225991242807e+06  9.0635525187115464e+06  9.0852259994368572e+06  9.1198482605419867e+06  9.1921338982414957e+06  9.2441092929739803e+06  9.2596178000673745e+06  9.3038709519568160e+06  9.4251266303221900e+06  9.5299641813956015e+06  9.5492224817025270e+06  9.6306524637693148e+06  9.7180106121360585e+06  9.7937308243900761e+06  9.8419407972599324e+06  9.8824638614492398e+06  9.9418663673378211e+06  9.9997725837410316e+06  1.0054392070112694e+07  1.0105527424760858e+07  1.0152678419297235e+07  1.0162641498479158e+07  1.0187876166957907e+07  1.0218662134564964e+07  1.0241013642995216e+07  1.0250803636062523e+07  1.0252964822392026e+07  1.0255000022662137e+07  1.0254723900389412e+07  1.0258532247332247e+07  1.0266779491173608e+07  1.0266150676676163e+07  1.0266212919936465e+07  1.0269245108020531e+07  1.0260489244813602e+07  1.0228040566552255e+07  1.0184110408004124e+07  1.0142269825759456e+07  1.0065407061912186e+07  9.9218580022478942e+06  9.8827790175261088e+06  9.9817692119581550e+06  1.0017699393757638e+07  1.0027479578655099e+07  1.0037488756785536e+07  1.0053457335199062e+07  1.0076107729933672e+07  1.0158299665796908e+07  1.0184687378247518e+07  1.0196956069193723e+07  1.0199409588215485e+07  1.0186149236206099e+07  1.0146204051104877e+07  1.0098936516232073e+07  1.0032466493339064e+07  1.0014998028512083e+07  1.0016060454364210e+07  1.0020905162479468e+07  1.0022196196321115e+07  1.0018280285416046e+07  1.0015753452276392e+07  1.0012156968196165e+07  9.9974130211045370e+06  9.9581479175107572e+06  9.8950874147092383e+06  9.8725346791283190e+06  9.9064975732780136e+06  9.9230989740440492e+06  9.9285925232686363e+06  9.9240957585561220e+06  9.9260641039882433e+06  9.9213471735606622e+06  9.9203621930447314e+06  9.9136713831568286e+06  9.9103642694977950e+06  9.9024702143038530e+06  9.8362298137367163e+06  9.7589114819244538e+06  9.6446506925628595e+06  9.5168476412920188e+06  9.3375461772514079e+06  9.0846619440122340e+06  8.7644375906766132e+06  8.4281720191019382e+06  8.1403391241066800e+06  7.9496037247786438e+06  7.8260825752910534e+06  7.8967684905414591e+06  8.0555185747707076e+06  8.4497599683952257e+06  8.7145661720753331e+06  8.8201170981913973e+06  8.9115387271569278e+06  9.0095680067203455e+06  9.0744534044389781e+06  9.1173215696712900e+06  9.1264898462401927e+06  9.1265775292295553e+06  9.1124152748272121e+06  9.0734632905952111e+06  9.0597825677014012e+06  9.0898732893863935e+06  9.1082255348291993e+06  9.1139550898886342e+06  9.1139502141661942e+06  9.0951634717036560e+06  8.9686073743818458e+06  8.9247179779583775e+06  8.8478967263640817e+06  8.8014320211185962e+06  8.7348052695554383e+06  8.6617558883657195e+06  8.5814482228187397e+06  8.5296585291391909e+06  8.5190135984641742e+06  8.5307663922771830e+06  8.5419899148775842e+06  8.5412088257649615e+06  8.5459668251179755e+06  8.5482238578599505e+06  8.5479473687372543e+06  8.5304357942600809e+06  8.4715340855986439e+06  8.3087587716253782e+06  7.9765042538010590e+06  7.7377711636549393e+06  7.5998168266310599e+06  7.5417595731883356e+06  7.5209827830207981e+06  7.4490375192237478e+06  7.4005694327370757e+06  7.3622360788937537e+06  7.3457528641126826e+06  7.2896509474575669e+06  7.2456663221556302e+06  7.2972215924392026e+06  7.2407398862693608e+06  7.1500540203494737e+06  6.9664655172839733e+06  6.7656424131675167e+06  6.6463340595665295e+06  6.5857339509276934e+06  6.6106915644530701e+06  6.6931537152058622e+06  6.7755389862858988e+06  6.8272213628139207e+06  6.9515337422367362e+06  7.0262726433380516e+06  7.0350328057461679e+06  7.0375543581214268e+06  7.0765746949623395e+06  7.1140892501182882e+06  7.1975425771904383e+06  7.2827854229712635e+06  7.3373784092969503e+06  7.3500887429137966e+06  7.3683994751049038e+06  7.4491623153566392e+06  7.4622337012239145e+06  7.4613810262944717e+06  7.4709552272717431e+06  7.4696234656380583e+06  7.4632823974367809e+06  7.4457900600508424e+06  7.4126655597774358e+06  7.3638431674134918e+06  7.3188020834004935e+06  7.2841768517396385e+06  7.2521336167031201e+06  7.2515178316214774e+06  7.2701412433308717e+06  7.3097163543754658e+06  7.3575442933480674e+06  7.4506021741651213e+06  7.6020467401881497e+06  7.7095729265265642e+06  8.0342236813572571e+06  8.5404240985628758e+06  1.0108987179650445e+07  1.0247951992188236e+07  1.0265767049220204e+07  9.9287738747962825e+06  1.0195918627276540e+07  7.2839407381461253e+06  9.8885077165406719e+06  9.9274960319472365e+06  9.0959217488996610e+06  9.0711033814414032e+06  8.5434944187006205e+06  8.5477547929496616e+06  1.0124299654628521e+07  8.0342272814324722e+06  8.0321131158379661e+06  1.0088502111634469e+07  1.0127110731384160e+07  7.2839452971893586e+06  9.8781145614269245e+06  9.9274990676745847e+06  1.0028999305281198e+07  1.0077349514733693e+07  9.9252337495284844e+06  1.0083008932622984e+07  9.9252060618591849e+06  6.6569979122643620e+06  8.2483776153352056e+06  9.3681819339949526e+06  6.7749523020218490e+06  6.4098187117339978e+06  6.9444858719506208e+06  9.3086134670794625e+06  7.5166423748881184e+06  8.3884704671632489e+06  6.9981562937260726e+06  6.2672467998201139e+06  9.2825335762276854e+06  7.5558603951186202e+06  9.9239863988507316e+06  8.3881234610891072e+06  6.7046008753071520e+06  7.2136041600951087e+06  8.9217861984601356e+06  7.1640567198868757e+06  9.7090075244005974e+06  7.6982965678322203e+06  8.7593720152107216e+06  7.0826531501762709e+06  6.7901610390807241e+06  6.6040906015020292e+06  6.4511643710834598e+06  7.4076683636028497e+06  6.6738571906030439e+06  9.7844426759541780e+06  6.8074108996393681e+06  9.5085187792132143e+06  8.0435175730045224e+06  8.9259555901320390e+06  6.8588879289965555e+06  8.9288913296428304e+06  7.5271171306892186e+06  8.4915005592064932e+06  8.5880415199454688e+06  7.8338463325215923e+06  6.2860618227199605e+06  7.5271300139629897e+06  9.6955707303602230e+06  9.3608058230853062e+06  1.0142138859421717e+07  8.9084709612790998e+06  9.0035030107119214e+06  7.2424394926974187e+06  7.1349783780009374e+06  7.4808275865809070e+06  7.8106350383466911e+06  9.6477054767750930e+06  8.3605859581370223e+06  7.0950284281270402e+06  6.6913203156412346e+06  9.8978981015892141e+06  6.7648978334472505e+06  7.2225554477018025e+06  8.8682532065179236e+06  9.5588008896806631e+06  8.7107536199666150e+06  6.2857607759002680e+06  9.9479101340091918e+06  6.3036833870702451e+06  7.8596699972127425e+06  7.9613115891899383e+06  8.0473410763710933e+06  7.4411019696448892e+06  6.7040483148099063e+06  7.7550213413212681e+06  6.9306817928816266e+06  6.5528534124112437e+06  6.8757559662404489e+06  7.2087523092064699e+06  7.0761211695403475e+06  1.0085690188839575e+07  9.6924772286764085e+06  6.9185595001817374e+06  9.9775693566310853e+06  9.3226655527937319e+06  9.1291745198900383e+06  9.7538828916649017e+06  8.4146812871693242e+06  7.5814036597207896e+06  8.5967344478377346e+06  9.2083209335145801e+06  7.1841137933158698e+06  9.5993266644014101e+06  6.4512645317222904e+06  8.1864892479127115e+06  7.3958314651595801e+06  6.6937352779221376e+06  8.4971730026168358e+06  9.5773025503522698e+06  7.8621183970127022e+06  8.8826163120648526e+06  7.7615301965861693e+06  9.2353587856781650e+06  6.7591045017587543e+06  6.9499340933928946e+06  7.0300524593098452e+06  9.7186190853066891e+06  8.4455551147005055e+06  7.1132290377396671e+06  9.8085341600284502e+06  7.8808206017054012e+06  9.8990288067767397e+06  7.3131680829307679e+06  1.0091315115749503e+07  1.0082444230696257e+07  7.4110157302730791e+06  8.0024954622069895e+06  1.0086410416636545e+07  1.0153252392636305e+07  9.8460255589829683e+06  9.8877541340121664e+06  9.0430332105177268e+06  6.9049639266350893e+06  9.7700300166585725e+06  9.5765135022304151e+06  7.4985725979744401e+06  8.0002446052892189e+06  7.8835198704883028e+06  1.0138139711148446e+07  1.0080417117202006e+07  8.2291120895797377e+06  9.9942638452385627e+06  1.0003474676578391e+07  1.0044020136429435e+07  1.0158636391613686e+07  7.7434597675166866e+06  7.1303629950053478e+06  9.0516607605890520e+06  7.1183041884388272e+06  7.9485593198358072e+06  7.1814881928981859e+06  8.9593050820679180e+06  1.0238282404677778e+07  8.7645945594255868e+06  9.0717923854671400e+06  9.8571352013580129e+06  7.9514070792044075e+06  7.3228405326233907e+06  9.0586880472181123e+06  6.4414978098105481e+06  7.3479449366336083e+06  9.8843023383809309e+06  9.8245525943438672e+06  8.4683770874943286e+06  1.0238016922059819e+07  6.6186462790339896e+06  9.9398211525294669e+06  8.7000941822326928e+06  7.4475785951315770e+06  6.8999961838371642e+06  6.5971580316824066e+06  9.2298902766771615e+06  9.8489024646292794e+06  9.7897202024128567e+06  8.9997740313874204e+06  1.0119143711092332e+07  8.4268711179019306e+06  7.2662258611364653e+06  7.2669087543665571e+06  7.2388411674362039e+06  1.0085832295119341e+07  1.0099035511232225e+07  1.0104345056536593e+07  9.5538321424922943e+06  9.7899495611268785e+06  1.0111879221184976e+07  1.0024727285793362e+07  8.7959230112293568e+06  1.0263874391595809e+07  1.0261739060915383e+07  8.2134735075395498e+06  7.2432702077114172e+06  8.5104574245952424e+06  9.8826375384337530e+06  8.1392145422592834e+06  8.6087129490075037e+06  1.0245111587815268e+07  8.2660592549189525e+06  9.3144186394169256e+06  7.4223049139333190e+06  7.5221364432652406e+06  7.4825953779130261e+06  7.5624053142819339e+06  9.9098932860322613e+06  7.9994143814266063e+06  8.0251378782902909e+06  7.9707104356961921e+06  8.0190207886632485e+06  7.9253222038495587e+06  7.4398687489314703e+06  7.3682814278840050e+06  7.9911500079075200e+06  7.4434434264091477e+06  9.1237092470210250e+06  9.1228254818925522e+06  1.0256248460273117e+07  8.5079272019153088e+06  8.1331870776993716e+06  7.6899770488783736e+06  7.7248687971050246e+06  7.7982191403143276e+06  7.9700433890215028e+06  7.8225822606463237e+06  7.9347632253760770e+06  8.2592362375303768e+06  7.9885873890659297e+06  8.1455838547747219e+06  8.4909464539788198e+06  8.3069042280722419e+06  7.7119746749241240e+06  8.0036061952282535e+06  6.8564358161218762e+06  6.9337330579164596e+06  6.8038043702916214e+06  6.7027558992895698e+06  6.7101692839326467e+06  6.6042287443459062e+06  6.6434878470663754e+06  6.5921167314662505e+06  6.5837818086915035e+06  6.6663643778320663e+06  7.3198657042255579e+06  7.3009044236857994e+06  7.2964415469868537e+06  7.2659611026147120e+06  7.2771420434766067e+06  7.2497073109590616e+06  7.2320111348164193e+06  7.2539616984016327e+06  7.2596264702168340e+06  7.2318240942608435e+06  7.2305154493833641e+06  7.2396054439801984e+06  7.2578083396002864e+06  7.3066740369329890e+06  7.2713995298306467e+06  6.4535354653988723e+06  6.7334141587567851e+06  6.6487609593256116e+06  6.5464493466502568e+06  8.4790074354531262e+06  8.3568732788377432e+06  8.1589101791843977e+06  8.3533136454554824e+06  9.1509767361817472e+06  9.5459101277228314e+06  9.2440575623951815e+06  9.4778798671941776e+06  6.9928711560560418e+06  6.6963368645027447e+06  6.6824221567575997e+06  6.8006939203939345e+06  6.6027222612176836e+06  6.4836909958853777e+06  6.5582261675563809e+06  6.5244682776156953e+06  6.3427680452616494e+06  6.5392733325411193e+06  7.4355618352696914e+06  7.3778768995358674e+06  6.5449126057627900e+06  6.8551753041722002e+06  6.9470554141011061e+06  9.4158309898591153e+06  9.1297318084561434e+06  7.4960646259555873e+06  7.4815365467970194e+06  7.7258564284203947e+06  7.3643345033071367e+06  7.6675512946649119e+06  7.5712559557339428e+06  8.0721167226463566e+06  8.4306763246814664e+06  8.2724427859182525e+06  6.7974596144469166e+06  7.0405088940734277e+06  7.2355644442385798e+06  6.8350774837650172e+06  6.2255981132590529e+06  6.4988782260902990e+06  6.5632414011605112e+06  6.1398784062107615e+06  6.2622933452328928e+06  6.5112382574114408e+06  6.3628032071083765e+06  8.9928350987123083e+06  9.4805554350756984e+06  9.1724837560785860e+06  9.5471102815931868e+06  9.8228777444983423e+06  8.7038764749945831e+06  8.1130269424769264e+06  8.6355392310833782e+06  8.3954315624610223e+06  6.4155318959469553e+06  6.7533170873290887e+06  6.9488868848645957e+06  6.4982670485364981e+06  9.1409531523020230e+06  8.8865644741317406e+06  8.9634335206239838e+06  8.7348019886445105e+06  6.9863294402079778e+06  7.1036038886252549e+06  7.5994738897146173e+06  7.7052990121515859e+06  7.3324357743457472e+06  8.8002092561868466e+06  8.5982209112265445e+06  8.9511972201332636e+06  8.5993028526024502e+06  7.2310588941008076e+06  6.9800481313169636e+06  6.8625650289738132e+06  6.9856189702665154e+06  7.1174953825785946e+06  7.2644703342966903e+06  6.8921338887809860e+06  6.9270495554767689e+06  6.6748406812053733e+06  6.7431071543606734e+06  6.9438953737190412e+06  7.0023085609481083e+06  6.6761652629637029e+06  6.3404283716500401e+06  6.7921921730160378e+06  6.2904798513361523e+06  6.2060583599057160e+06  6.4460982198083196e+06  6.6501655239215903e+06  6.5916172468323484e+06  6.3401541983779827e+06  6.5199656000402048e+06  7.2724752325813817e+06  7.7161420806432869e+06  7.4000550020428328e+06  7.1608333117156001e+06  6.6881998142354339e+06  6.7673989932909617e+06  6.4464672086997265e+06  6.6786829106904995e+06  6.5334226264505219e+06  7.0470162610790888e+06  6.4740638248806773e+06  6.7649698163392721e+06  6.8602445998384543e+06  6.9859290617464455e+06  6.6984221144892983e+06  7.9085675004109154e+06  7.8733450871373275e+06  8.2274158685926097e+06  8.2828540542720184e+06  8.8955385934328325e+06  6.7603688603389021e+06  6.7107239779050723e+06  8.7115639705372024e+06  7.7882115691584917e+06  7.2625552744417824e+06  7.2561386187112397e+06  7.7000494026559386e+06  8.6729998147652168e+06  8.5411864518644307e+06  8.4870800788702630e+06  8.4390545801178552e+06  7.7924243257078826e+06  7.4520334205985460e+06  6.2693381213752348e+06  6.3448583393628281e+06  6.4336541397964880e+06  7.3912248152736155e+06  7.6178603914156752e+06  9.4051826314879432e+06  9.6352553817808796e+06  9.1423573525499962e+06  9.5356431475423072e+06  9.2712222347232699e+06  9.0305726128395163e+06  8.7046049876593295e+06  8.7991923112280369e+06  7.0283880553539107e+06  7.0860277191446340e+06  7.3293520065949960e+06  8.0532814644992528e+06  6.9303099244097266e+06  7.1320708790949443e+06  7.1815975238599647e+06  6.8161437012973819e+06  6.9227793978261519e+06  6.5384207567468509e+06  6.5552215770754181e+06  6.2793816255034078e+06  7.5604488111236691e+06  7.8373139552440848e+06  7.9515310124881193e+06  8.0810517565941494e+06  8.1060900167111922e+06  7.9557999670529757e+06  7.9439968861953337e+06  7.1967036731288126e+06  6.8272261155595174e+06  6.5929686511145448e+06  6.8091001330635743e+06  6.7774481838516686e+06  6.7386416042069541e+06  7.1411062394519513e+06  7.0082927614570754e+06  6.7179953095734529e+06  9.3650148389861397e+06  6.7932781230007503e+06  6.7774812174349399e+06  7.7265701835008590e+06  8.1149921593511682e+06  8.6742582746197321e+06  8.4638178401839267e+06  7.1443798957158355e+06  7.2732758810598087e+06  6.7550580496589551e+06  7.8407288717579283e+06  7.2042041156264450e+06  8.1011628126327265e+06  6.4795533092877334e+06  6.4950086847758070e+06  8.2281669685395146e+06  6.4535399201356564e+06  8.4162207578365430e+06  6.4951087749116383e+06  6.4104421410610704e+06  6.4442009080802063e+06  6.3694870264549367e+06  6.5282576718879985e+06  7.6007239581123255e+06  6.2038774232333144e+06  6.4007393497118773e+06  6.2938437946462156e+06  9.3225017563404925e+06  7.1396573045649594e+06  6.5498148619561307e+06  6.5840641897172816e+06  6.7169598537401315e+06  6.9739874799776915e+06  8.6099563733051270e+06  8.6639638138059136e+06  6.7458373193070972e+06  6.8212711122881686e+06  6.4762139994594203e+06  6.3957585018234635e+06  6.3050462563494053e+06  7.1984546177981030e+06  7.4967369627581025e+06  7.6574981959068077e+06  7.3652989109610664e+06  7.7383530281608803e+06  6.2031402364303926e+06  6.3997173434685720e+06  6.3084344254064588e+06  6.3566245971534951e+06  8.7995941828519609e+06  6.6112857606765926e+06  6.6924823701828234e+06  6.7653173610623311e+06  6.3896875685196025e+06  6.3235284717409192e+06  6.3851456369651174e+06  6.3700146193864793e+06  6.2824426326269014e+06  6.3528635234450316e+06  6.2842311008507321e+06  6.8082584282920631e+06  9.0500382019100320e+06  9.1405488012393285e+06  9.2583882323738318e+06  8.3393670606696494e+06  8.6369967050215304e+06  6.6018574432413029e+06  6.6767312182887457e+06  6.6299148126750663e+06  6.7317083334503984e+06  7.9771717330141962e+06  7.6489369604937704e+06  7.7286489489727542e+06  6.6249760208547907e+06  6.6433537914588507e+06  6.7417267535032332e+06  6.9557213638137076e+06  7.0461504939199500e+06  6.9561359209103128e+06  6.8471925214594100e+06  8.2744906338037187e+06  7.2184969864789052e+06  7.1536791505522141e+06  7.1898022427267712e+06  8.0427988560948074e+06  8.0230954154673535e+06  8.0239348315234445e+06  6.4791251387961265e+06  6.5674955967048733e+06  6.6748324236255791e+06  6.5593266130433092e+06  7.2496682542483350e+06  7.1923823811135804e+06  8.2008073220576439e+06  8.3662613179826075e+06  8.2732005412704451e+06  8.1841268060931340e+06  8.1826824561415799e+06  8.2419938264238350e+06  8.1201203137602303e+06  6.7723418362289211e+06  7.2322298021417484e+06  6.3655696391505105e+06  8.5317904363594800e+06  6.7321272821447477e+06  6.7175918766743187e+06  6.5452037956980178e+06  6.3812946389164664e+06  6.6139498291894682e+06  6.6004623691709209e+06  6.3635027734538587e+06  6.3848036902320506e+06  6.7128787968063075e+06  6.5211073653994026e+06  6.7393263330764836e+06  7.6238788495820267e+06  7.6396614384029238e+06  6.8216267750110449e+06  6.9391593705638368e+06  6.1234972237066394e+06  6.1779372380131334e+06  6.4597218017141623e+06  6.1262703720559804e+06  6.3594985302695632e+06  6.2328139210931985e+06  6.5417945077389693e+06  9.2812623035120759e+06  6.4536676164931767e+06  6.6306005470137326e+06  6.6415067953349994e+06  8.7946648739991356e+06  8.7894628453593832e+06  8.7081930386133082e+06  6.9140035771147851e+06  7.0792316963640833e+06  6.8694508255573483e+06  6.6271030482499432e+06  7.0713565061981827e+06  7.1651142467350587e+06  6.3800291564080501e+06  6.4770255361734685e+06  8.0578553968335912e+06  8.0058333242977504e+06  8.1612280045320811e+06  6.3827035526697244e+06  7.1714040072681764e+06  </DataArray> 
</PointData> 
</Piece>
</UnstructuredGrid>
</VTKFile>