<?xml version="1.0"?>
<VTKFile type="UnstructuredGrid"  version="0.1"  >
<UnstructuredGrid>
<Piece  NumberOfPoints="784" NumberOfCells="1320">
<Points>
<DataArray  type="Float64"  NumberOfComponents="3"  format="ascii">266913.131276 586512.314988 0  266738.13716 587762.325998 0  266363.132677 589012.328643 0  266175.641078 590169.601714 0  265666.575631 591040.7699119999 0  264875.64001 591687.766419 0  264900.636161 591845.049083 0  266088.14152 592012.3229499999 0  265561.959259 592661.17101 0  264288.136855 593037.368683 0  263865.194033 593999.8486949999 0  263850.641856 593236.729596 0  263625.634872 592756.525286 0  262689.574249 593299.848918 0  262475.636737 594003.0907310001 0  261934.554452 594340.929792 0  261725.631329 594932.094409 0  261729.256443 595728.498809 0  262138.136044 595012.330523 0  262288.141035 596262.333669 0  261488.994028 597511.480605 0  261234.15567 598316.338928 0  260815.635063 599014.863821 0  261400.643658 599389.7367680001 0  261322.963374 600022.185065 0  261119.455248 600931.061306 0  261607.436504 601293.0629359999 0  260807.446929 602089.899812 0  260025.642878 602988.868697 0  259613.135827 603937.3854499999 0  259050.643123 604100.987861 0  258411.880065 603988.6335979999 0  257764.357469 604449.872569 0  257971.239668 605320.429125 0  258041.396867 605740.635381 0  257188.143339 606987.394312 0  256038.141198 608112.3554550001 0  254788.141633 609087.4026939999 0  253588.140656 609812.362881 0  252338.135706 609737.4048949999 0  251088.138116 609787.404055 0  249963.12851 610287.399466 0  248613.130524 610462.365857 0  247363.132198 610687.407659 0  246113.130532 610837.411551 0  245832.347438 610918.209918 0  245016.946433 610958.5639439999 0  244313.129646 610762.372259 0  244400.622144 611378.093316 0  243939.669208 612460.8930899999 0  242960.649733 611984.892792 0  242170.381438 611919.647351 0  241888.122919 611112.375656 0  241393.380757 610467.6456149999 0  240594.157528 611306.369822 0  240525.621947 610804.648112 0  240363.123632 610512.3745050001 0  239113.123247 610262.374278 0  239813.12126 609037.412459 0  240588.122952 607812.368199 0  241013.119545 606625.9534560001 0  241454.373249 605724.888025 0  242238.120107 604687.3993 0  243088.121248 603462.362766 0  242860.319451 603007.3932640001 0  241563.116617 603812.361344 0  241778.400913 604327.642217 0  242059.837234 604824.879102 0  241475.620201 604923.2402390001 0  241462.182234 605449.881372 0  240906.219606 605674.888222 0  240241.856192 606891.125066 0  239891.734044 607841.012479 0  239048.653431 608724.889805 0  238118.054545 608974.895967 0  238888.111029 607337.406468 0  239738.119992 606212.362729 0  240288.12044 605687.4075229999 0  240380.212307 604729.521696 0  239347.309632 604603.204501 0  238888.112036 604387.408787 0  237913.11173 604687.401386 0  236784.172023 604499.882783 0  236883.408793 603717.08334 0  236154.933927 603595.565605 0  235688.103943 602912.369264 0  235763.108033 601662.366516 0  236363.110805 600412.35884 0  236738.107995 599162.356577 0  236525.607944 598482.2412899999 0  236138.109208 599362.357613 0  235725.063048 600325.4466510001 0  235091.948926 601408.5220979999 0  235188.10921 600312.366344 0  234375.602405 600833.9674270001 0  234663.109308 599912.358011 0  234138.105122 600062.365644 0  233955.307245 599029.561063 0  233338.103791 598387.401556 0  233988.09795 597862.356384 0  235138.101489 596637.3947750001 0  235563.1039 595387.392428 0  236513.103639 594212.356312 0  237163.10684 592987.3929869999 0  238313.103031 591862.3515540001 0  239513.107028 590812.3512640001 0  240638.102135 589787.387271 0  241463.109549 588587.378486 0  242294.489816 587443.735215 0  242913.101099 586512.341804 0  243544.066915 585474.859604 0  243040.448415 585184.975583 0  242438.10214 585337.38015 0  241313.102353 586562.339499 0  240538.107104 587787.382449 0  240114.641085 588588.939407 0  239388.100256 589437.382238 0  238188.104456 590512.346358 0  236938.100507 591362.349798 0  235813.10453 592537.396388 0  234864.502938 593178.7753880001 0  234463.097651 592862.357267 0  235113.0965 591662.3545979999 0  235713.101522 590412.346099 0  235777.688431 589976.7582779999 0  234943.583145 590706.265132 0  234462.482256 591490.2841159999 0  233801.497784 592112.940187 0  233388.099101 591787.394208 0  234013.093099 590437.393065 0  234776.217248 587148.7548100001 0  235163.093726 586562.3486189999 0  235313.098918 585483.229012 0  235250.59732 584662.298153 0  235588.093896 583337.379493 0  236329.432041 582199.858992 0  237188.096234 581462.3349939999 0  237463.088521 580212.335511 0  238350.592558 579057.652616 0  238591.415797 578574.847681 0  238313.094106 577612.328905 0  239229.696732 577695.769664 0  240195.161018 577513.008613 0  240614.996733 577149.8518770001 0  240663.091715 577412.332622 0  240288.092486 578662.334085 0  239942.357258 579508.095811 0  240438.100019 580212.3334220001 0  241338.095553 580387.375355 0  241238.099828 579137.369157 0  241788.097003 577887.370889 0  241983.554649 577241.9220939999 0  242054.178239 576927.8105029999 0  242588.100699 575737.366175 0  243149.324833 574898.583978 0  243695.278626 573919.517981 0  244268.494418 573724.8454239999 0  244995.134063 573930.2767810001 0  245417.314363 573391.601898 0  243450.599125 571859.479773 0  245776.797908 572599.8353060001 0  246779.639852 572973.285167 0  248034.741935 573186.082054 0  249413.10651 573162.3205520001 0  250496.922226 573271.1521899999 0  251613.105126 573237.3551319999 0  252421.824577 572846.032906 0  253256.245022 572580.4733130001 0  253739.471933 571960.9547369999 0  254174.511864 572149.8346569999 0  254484.944333 571684.194807 0  254384.108649 570891.346712 0  254344.002752 570218.26407 0  255025.609604 570829.0294979999 0  255715.005913 570489.264586 0  256218.846343 570774.828355 0  256834.349083 570508.5908 0  257390.092515 570014.308325 0  257624.431042 568493.478911 0  259355.811717 569380.021819 0  260033.372814 569617.066669 0  262679.741751 570320.699974 0  263289.115756 569524.817815 0  263463.114338 570512.301061 0  264638.198419 570687.3443539999 0  265058.220065 571334.378467 0  265447.561421 572077.90485 0  265488.125257 573137.3446020001 0  265131.937715 573963.293593 0  265432.389648 575093.068786 0  265638.122314 576338.029955 0  265750.630817 577371.8281319999 0  265738.570663 578561.9098850001 0  265875.630866 579139.630549 0  266213.129247 579862.311842 0  266563.130472 581112.314509 0  266238.135356 582362.310259 0  265938.12863 583612.320897 0  265738.131342 584762.3210189999 0  266875.638633 585365.358768 0  264018.7239399826 593650.4646671159 0  262236.3944351029 595831.1252656333 0  241846.246678 605206.1436625 0  240200.622106 608424.8903290001 0  240943.4862974102 610939.7757535663 0  236550.6094 599787.3577085 0  238528.1212051503 608102.9081793013 0  244413.4891967989 572609.5960859474 0  236382.0474488751 598808.3067022427 0  235369.601910944 600933.5380148316 0  235413.099011 591037.3503485 0  235446.2251831186 590266.6553871984 0  240475.5921005 578037.3333535 0  240413.173949154 577324.4280286073 0  240574.037899 606283.0066440001 0  263857.9179445 593618.2891454998 0  264153.4303974913 593343.916675058 0  242042.1833925 604946.7714812499 0  241650.3099635 605465.51584375 0  244613.6985165 572229.6575395 0  236631.8579695 598822.2989335 0  235140.029068 600860.444221 0  241767.7287175 604874.0596705 0  242140.15174975 604817.0853906251 0  234781.8558075 600573.1668855001 0  242091.167571125 604881.9284359375 0  234519.3558565 600373.162719 0  254604.8337712102 583989.0014118921 0  250699.5846056537 594617.3297041012 0  250540.4796469513 602258.2940568649 0  248483.7490186612 580334.7345534252 0  258549.2190328319 577893.951823392 0  257067.0067473103 590016.5327808241 0  243285.0921999099 596333.923437875 0  248333.1386145258 589098.0389905117 0  256142.8445072741 595883.3911551933 0  260245.1368072523 583315.2785712298 0  253472.3380211276 578932.2908163272 0  246432.3347504817 599884.5019511909 0  261555.9240922556 588041.186709004 0  247293.1100123104 605823.8307887657 0  246458.2798550911 593168.8646574575 0  252840.0183145193 588226.5564648228 0  249828.2874404451 584740.7888937403 0  255409.5660975206 600458.8956828594 0  260819.9733392385 574219.403683011 0  252584.2262054711 605722.6603825617 0  254049.8830611471 592547.4852571967 0  250015.4356193061 598425.2225922942 0  245872.072249477 577604.9761853142 0  262002.1583249522 579753.4663046852 0  257732.6630933878 586227.970805314 0  250242.5556457866 577017.3316409125 0  244921.6453001869 581816.6358421432 0  256520.3890639471 580904.824006648 0  240779.0970645865 599524.6679555867 0  257100.1829219198 574459.5922545703 0  239912.2630002034 595231.1172704464 0  244703.0875078634 590068.6945953515 0  242549.5490268674 592874.3693043783 0  251586.0465921376 581796.2215047925 0  246643.189997516 596527.447801719 0  251049.7658069622 591057.6752245198 0  253014.5731561695 596998.6601086652 0  238680.2197353724 584542.2309791476 0  259715.365803504 591937.1938619445 0  254097.157218761 575731.4494927844 0  246806.6408589328 586139.0877599345 0  246136.1179750556 602959.471719323 0  253520.7033332401 602835.180253843 0  244125.4295793909 607538.9817227355 0  252546.8895354472 599881.3279113505 0  258289.0983523553 600397.640191779 0  247518.7952199645 583037.3718217331 0  263140.3959879661 582529.2228421422 0  262894.8586894067 585442.3590432997 0  256968.6320599076 593040.7691844478 0  243573.0187527719 600218.2795730785 0  258888.5766127351 595139.7745218446 0  262588.7569809347 576734.8569237856 0  259318.4257992262 580601.2540325444 0  249963.3812725965 607065.7205847671 0  257494.5307999607 583482.5893534871 0  258906.4757205145 572278.8089438241 0  237751.446593475 587300.5805003279 0  255142.4708720699 604956.7580261135 0  258485.4978753244 597756.9250383095 0  255516.7820591553 587791.39641967 0  239758.4692108706 601926.8203218657 0  255873.0092222999 577739.5085867504
[...]
<PointData  Scalars="f_32-0"> 
<DataArray  type="Float64"  Name="f_32-0"  format="ascii">3.0289150550892390e+06  3.1647355980063858e+06  3.3262755041346820e+06  3.4557520414623735e+06  3.5467172983964756e+06  3.6777533123207311e+06  3.7139844306420200e+06  3.7318840325998724e+06  3.7348209519677856e+06  3.7792004394394485e+06  3.7893182796190032e+06  3.7912837620088183e+06  3.8358028952862504e+06  4.0837030812889570e+06  4.2269481911036000e+06  4.3504318932682155e+06  4.5095010394505057e+06  4.6748695499503938e+06  4.6925768946018014e+06  4.7185063179398384e+06  4.8495574904615758e+06  4.9503821235125083e+06  5.0617720867507532e+06  5.1192737570711523e+06  5.1469156387457671e+06  5.2061593841350526e+06  5.2229618619661089e+06  5.2546833003787408e+06  5.3180102425379800e+06  5.3610814888095306e+06  5.3748968368000202e+06  5.4133637950351564e+06  5.5020226347646201e+06  5.5681503939143158e+06  5.5797302930348227e+06  5.6305223818071503e+06  5.6862360763910348e+06  5.7352288851969484e+06  5.7673884953630539e+06  5.7963686717693498e+06  5.8379048375024879e+06  5.8764676814182503e+06  5.9119556803519130e+06  5.9442973141363580e+06  5.9732362037137514e+06  5.9792296255246364e+06  5.9942878965927744e+06  6.0122413831598042e+06  6.0247287731063934e+06  6.0301353195834942e+06  6.0315499800567618e+06  6.0328687318098433e+06  6.0331148022545269e+06  6.0359619462059299e+06  6.0406553693857072e+06  6.0403436870121872e+06  6.0404715005608043e+06  6.0422386569998665e+06  6.0377986621180978e+06  6.0217954142664541e+06  6.0008799381161351e+06  5.9815187743099062e+06  5.9470410787415346e+06  5.8841297971601402e+06  5.8631963365000198e+06  5.9003262327405363e+06  5.9168564265358318e+06  5.9214973709880589e+06  5.9264078380051134e+06  5.9343463244543876e+06  5.9459570443136403e+06  5.9885940069206636e+06  6.0023994836210441e+06  6.0088495251466930e+06  6.0101420806181738e+06  6.0031693843379701e+06  5.9822839591231197e+06  5.9577380302924309e+06  5.9230972706640027e+06  5.9122245736050950e+06  5.9116786477479720e+06  5.9126758129734667e+06  5.9127743899579085e+06  5.9103743503406653e+06  5.9084916081950292e+06  5.9063238946038373e+06  5.8981378162310105e+06  5.8766424700015178e+06  5.8407597320505660e+06  5.8243685773481997e+06  5.8381478894680832e+06  5.8457084043172989e+06  5.8482807989182835e+06  5.8461525956984228e+06  5.8470464446316157e+06  5.8447828754545022e+06  5.8442633192253672e+06  5.8409667645837404e+06  5.8392978954678634e+06  5.8354681065479210e+06  5.8026875646650484e+06  5.7632600267910752e+06  5.7049494822662594e+06  5.6398703153005568e+06  5.5500566033015260e+06  5.4247480477076126e+06  5.2599775777167026e+06  5.0718843371108007e+06  4.8719199372226810e+06  4.6855166045786766e+06  4.4187982550562816e+06  4.2905475170557480e+06  4.2664978770781448e+06  4.3110760808217525e+06  4.3524540204483252e+06  4.3713858254076913e+06  4.3895149027004708e+06  4.4114794654922215e+06  4.4282293787837476e+06  4.4405199548095483e+06  4.4432669234857764e+06  4.4432936337621734e+06  4.4390556872421065e+06  4.4275685120102782e+06  4.4232817137373667e+06  4.4313387547442829e+06  4.4367265330982236e+06  4.4384385001059342e+06  4.4384396711983997e+06  4.4328529440427963e+06  4.3957535406097043e+06  4.3828507434754400e+06  4.3587687515944969e+06  4.3432539267093241e+06  4.3203054802661752e+06  4.2940628610027228e+06  4.2622565446603531e+06  4.2337224035167117e+06  4.2187689554871051e+06  4.2176722154708887e+06  4.2181989686892256e+06  4.2177885731858071e+06  4.2179459255925613e+06  4.2181953276945055e+06  4.2181634540277794e+06  4.2156395792029928e+06  4.2045850352021009e+06  4.1589508720637783e+06  4.0202431755978554e+06  3.8523727226434816e+06  3.7252005863872655e+06  3.6588153370101145e+06  3.6323069314167658e+06  3.5334710495313136e+06  3.4636968532355041e+06  3.4077049745756336e+06  3.3907346261088066e+06  3.3373423718417431e+06  3.2673270209465399e+06  3.2415862310397876e+06  3.2453984661658546e+06  3.2082365213158415e+06  3.0946180230579339e+06  2.9183774568828726e+06  2.7386337510157260e+06  2.4736590386109976e+06  2.2420158585031852e+06  2.0136452276721171e+06  1.8719541507231751e+06  1.7944859833044230e+06  1.6447492837519930e+06  1.5730713349543409e+06  1.5671391509488861e+06  1.5543786862584029e+06  1.5030786709306361e+06  1.4547193752396621e+06  1.3669419498326438e+06  1.2980229496348649e+06  1.2645165477331819e+06  1.2424241347669701e+06  1.2222309554954332e+06  1.1825888626124836e+06  1.1835705196255622e+06  1.1815023667337196e+06  1.1805111909060497e+06  1.1793819129851686e+06  1.1769418586613676e+06  1.1729602292168688e+06  1.1716164441535121e+06  1.1916540521525217e+06  1.2475373656854187e+06  1.3275041662737376e+06  1.4814814905286254e+06  1.5938433830725469e+06  1.7302252770659851e+06  1.9113846454621037e+06  2.1196779163504564e+06  2.4093722051643496e+06  2.7494585309291673e+06  2.9352449298691577e+06  3.7895035428198008e+06  4.7008398353778841e+06  5.9664289973453600e+06  6.0315520185896615e+06  6.0401057042189436e+06  5.8602938252817243e+06  6.0083036265429212e+06  3.2441311747410921e+06  5.8303361417102264e+06  5.8477647163801966e+06  4.4341849393911436e+06  4.4260680935652424e+06  4.2175942580104191e+06  4.2181415540412059e+06  5.9708899866081029e+06  3.7894708578390251e+06  3.7894315073673041e+06  5.9572691887286091e+06  5.9746119305454399e+06  3.2441374381914972e+06  5.8300886163937021e+06  5.8477662442277176e+06  5.9222360022281185e+06  5.9523180093524894e+06  5.8466562295885477e+06  5.9548275372990165e+06  5.8466424099701922e+06  3.2773034366762689e+06  5.0791303930846248e+06  5.6389194672265844e+06  3.5108122029972323e+06  9.7068364098097570e+05  4.0892787489469042e+06  5.5802241179795070e+06  4.6310520636448655e+06  4.9027496199701214e+06  2.4982095973732509e+06  2.5872582083674003e+06  5.6601486859258106e+06  3.4204716235623569e+06  5.8723493237957098e+06  5.1931650858029947e+06  4.1750268120375136e+06  3.9363430610239399e+06  5.3402738051416920e+06  1.0544623380931905e+06  5.7154268451244757e+06  4.6583748980658632e+06  5.4276272382302182e+06  3.4842375706326659e+06  1.3840089357288105e+06  3.3492166538079078e+06  2.9686606242273049e+06  3.9463471808436210e+06  2.3129345639467570e+06  5.7987164093655339e+06  1.3172528805305162e+06  5.6466538608424291e+06  4.9975721137933116e+06  5.3873159648311092e+06  3.3355986719073053e+06  5.4487995775840720e+06  4.6813923852197602e+06  5.1699481708161598e+06  4.3050491919539943e+06  4.1706758169055954e+06  2.0451972947214500e+06  4.3584213809376881e+06  5.8080702197320489e+06  5.5615963620032435e+06  5.9773131836565770e+06  5.4203046459340593e+06  5.2277642830329901e+06  3.9143231734877951e+06  2.1691441998324636e+06  2.8698560491401530e+06  4.5246175692311609e+06  5.7613923433900997e+06  4.6749648892449401e+06  1.0839262707029816e+06  1.7641259475557096e+06  5.8302202721745409e+06  2.8028937451175302e+06  1.2205178499302370e+06  4.3754817511016298e+06  5.6082289419068443e+06  4.9910016790307919e+06  3.8601511212514099e+06  5.8786854335938990e+06  1.6562046382894481e+06  3.7872910255628130e+06  4.1486815750145493e+06  4.9909134709910275e+06  3.7657529841418252e+06  2.9134413102741241e+06  3.2352792329329522e+06  4.3093539082765942e+06  3.1371554579864563e+06  3.1864094897294883e+06  3.0682323048517704e+06  3.6586894558122987e+06  5.9403305619070996e+06  5.7477379348712740e+06  3.6075219525090596e+06  5.9076234692651406e+06  5.6199498634238085e+06  5.6109906084134085e+06  5.7707084338757088e+06  4.2303398681163173e+06  4.1838469755161982e+06  5.1586607204576219e+06  5.3999467892643632e+06  4.2531353186799902e+06  5.7571930701052574e+06  3.7420111017931961e+06  4.9489113475196008e+06  1.1503847534396818e+06  3.3083055084939734e+06  5.2379708382400060e+06  5.6932403277422311e+06  4.9412709806841435e+06  5.3959245683977259e+06  4.6906657178525170e+06  5.5073011181199774e+06  9.5420357382072601e+05  3.6667627932841773e+06  3.6349844010898708e+06  5.7453000884918282e+06  5.2165239718802059e+06  1.6968209575140118e+06  5.7524928043540148e+06  4.8245438934831088e+06  5.8483966241689706e+06  1.1201826637265908e+06  5.9573288367569000e+06  5.9543235712043066e+06  3.6052916211189255e+06  3.7554163808189444e+06  5.9562758465473158e+06  5.9758906942976722e+06  5.8162405183926262e+06  5.8287269281834001e+06  4.4175568602164891e+06  1.5489896653074275e+06  5.8276906657870980e+06  5.6000471485266108e+06  3.6314451701552155e+06  3.7184067366715530e+06  3.5307770168441632e+06  5.9793332817888539e+06  5.9536612535099108e+06  4.4493117529664170e+06  5.9022134778587166e+06  5.9199362370387893e+06  5.9375928141590785e+06  5.9773841171070319e+06  4.2135472440324752e+06  3.2553582771919528e+06  4.4218534965990717e+06  1.3740963210630207e+06  3.6463853679452501e+06  1.5090717950295429e+06  4.3947745627326844e+06  6.0261391119640544e+06  4.3380074894846426e+06  4.4259755281076832e+06  5.8195025827256395e+06  4.2190233150621969e+06  1.2342984928155469e+06  4.4223311167553905e+06  2.2987229672401012e+06  3.4129098054778660e+06  5.8277957040095897e+06  5.7981941585877063e+06  4.2168888243688345e+06  6.0244794610689860e+06  2.9076274323818232e+06  5.8676614322503628e+06  4.9070488025524085e+06  1.1705988694918533e+06  1.6519568604146861e+06  1.8466144869101022e+06  5.3559798594296928e+06  5.8544495726660797e+06  5.8225713034809623e+06  5.1714713563038623e+06  5.9709136247910773e+06  4.6245797655329024e+06  3.2478763084576800e+06  3.2470733984460928e+06  1.3044597407988906e+06  5.9560766842855215e+06  5.9619679785412056e+06  5.9643126878221976e+06  5.5835825640485454e+06  5.7846300991830593e+06  5.9503747932101516e+06  5.8992985708508315e+06  4.3649592957622679e+06  6.0391161021002224e+06  6.0382867286528731e+06  4.1567679706692477e+06  1.2387109865827907e+06  4.2143947488266351e+06  5.8717070739074247e+06  4.2141733099205615e+06  4.2863358066395354e+06  6.0272137945588063e+06  4.2465487590367999e+06  5.4383372932262933e+06  2.5087858845219752e+06  3.6403946373964623e+06  3.5811407464889772e+06  3.7014542716730940e+06  5.8394547482739277e+06  3.7050099910814888e+06  3.7470960875601741e+06  3.6543762235259721e+06  3.7440169081766214e+06  3.5241307489467012e+06  1.1736786563293557e+06  1.1754352633758439e+06  3.8865352016147356e+06  3.5507267652080529e+06  4.4424299731118418e+06  4.4421638944715131e+06  6.0351583160846522e+06  5.1601317301023267e+06  4.9352434533487475e+06  4.4146943123186817e+06  4.3013638687973246e+06  4.2956089617748633e+06  4.2701200612187199e+06  4.2746575244710464e+06  4.2521712859396227e+06  4.2847343590501137e+06  4.2517693707755934e+06  4.2539065177368885e+06  4.3079357271598605e+06  4.2828350057703620e+06  3.9703342291555093e+06  4.0895187054312350e+06  3.0086129197946340e+06  3.1191968785896786e+06  2.9966469135261648e+06  2.8379455765826344e+06  2.8997673205202501e+06  2.6184195343007925e+06  2.8146772085727155e+06  2.7147176494212067e+06  2.1708501825592639e+06  1.9473476975472015e+06  1.2147113700702968e+06  1.2835110162524704e+06  1.2532141302804793e+06  1.3912971649425447e+06  1.2945769755259706e+06  1.5366690903034247e+06  1.5050693558703742e+06  1.3524597506821263e+06  1.6673715352688553e+06  1.5548127835602863e+06  1.7162163427363990e+06  1.6242937388015680e+06  1.8341815117244523e+06  2.1673595635148669e+06  1.9461007901533660e+06  3.2861812028431920e+06  2.8459646413755449e+06  3.0353349031979735e+06  3.5136415433217771e+06  5.2647674474966060e+06  5.1240327193915499e+06  5.0361283331758678e+06  5.1596692986480854e+06  5.5372120481086485e+06  5.6976440600444665e+06  5.6258380912979692e+06  5.7005254893901218e+06  3.7129759797469634e+06  3.3352307566323839e+06  3.4024101723808623e+06  3.5946169732636171e+06  1.0977503892828277e+06  1.5978240271345251e+06  1.0415345526933981e+06  1.3052901674082892e+06  1.1964212702935261e+06  9.3010928569896915e+05  4.1303760864492967e+06  4.3175274077603696e+06  3.9783343139119567e+06  4.2014686717040585e+06  3.8762205749246613e+06  5.6140260348434802e+06  5.4896474857869428e+06  4.6564113597267605e+06  4.4979937431589095e+06  4.8208003161999052e+06  4.4471585149870701e+06  4.7903952433953434e+06  4.6619363742789216e+06  4.7826583326738300e+06  5.0387975494062910e+06  4.9232752328215148e+06  1.9095071707248061e+06  2.3017253322760961e+06  2.6854534398926185e+06  2.1543203778204774e+06  2.8009949251693022e+06  2.4032349207338523e+06  2.9923763494637525e+06  2.2689745965278777e+06  2.1601128729423871e+06  2.7381627207243848e+06  2.8980318301346335e+06  5.5516273592949286e+06  5.7398032025069259e+06  5.6360163549582725e+06  5.7526084832118852e+06  5.8443982118997863e+06  5.3291420587266302e+06  5.0732476699323095e+06  5.2987548395769736e+06  5.2044640823049759e+06  4.0246937774808300e+06  4.2439305624262597e+06  4.2130979018096467e+06  3.9670643115877449e+06  5.4583095516385464e+06  5.3794109056503149e+06  5.2809320709034214e+06  5.2537190587070957e+06  1.0916139386959991e+06  1.0211757155207562e+06  4.6692093227476403e+06  4.5917347836471153e+06  4.4913227018307848e+06  5.4371596890414506e+06  5.3042404628820159e+06  5.5245021054217350e+06  5.3363366788652847e+06  3.6268863174151909e+06  3.3372631453060131e+06  3.4044849734140718e+06  3.5691528399390178e+06  3.3562143456199849e+06  3.4410601433801744e+06  1.7739538946246940e+06  1.1505421007340823e+06  1.4963134508718352e+06  1.0143843920427058e+06  1.5399340047678303e+06  1.4386911323286314e+06  3.0832551855879058e+06  3.6042487804368585e+06  3.5077825625681747e+06  3.5349897055935720e+06  2.5686322063185931e+06  3.0433154702378963e+06  3.0849047405445511e+06  3.1482454455014961e+06  2.6548256440052763e+06  2.9289507007728820e+06  3.9353783321671919e+06  4.0591656313816952e+06  3.8533437786403666e+06  3.8104349860911714e+06  2.0130190934935436e+06  2.5662362346862950e+06  1.9278302972733201e+06  2.6279985588546870e+06  1.6280281377466326e+06  1.2481608679192504e+06  1.3633253778871899e+06  1.0093178578905065e+06  1.4504996910067226e+06  1.3644504014792354e+06  1.5730613388531837e+06  4.9686206657955535e+06  4.8515197572215982e+06  5.1122656881126277e+06  5.0793597085710289e+06  5.3907924590512132e+06  3.1392223927229685e+06  3.2286685036268081e+06  5.3482928681041216e+06  4.8413897551318770e+06  4.5019162746426817e+06  4.4744643735044384e+06  4.7549152052530069e+06  5.3021760105747776e+06  5.1631989646663712e+06  4.2692023917487664e+06  4.2783498552563777e+06  4.3541060616672738e+06  3.9284680856781006e+06  1.8537907825763612e+06  2.1792853424056228e+06  1.9408171344839328e+06  4.3101318518083738e+06  4.5240245486156382e+06  5.7186162351180380e+06  5.7839529734579017e+06  5.4966917109000357e+06  5.6602630743490802e+06  5.4833429412708832e+06  5.5193948269097833e+06  5.2947141205153000e+06  5.1922440653349143e+06  3.7832917302568946e+06  1.9068087378342242e+06  4.4176762177640423e+06  4.4834732906514257e+06  9.8737143513670610e+05  1.2647803602303611e+06  1.1668576954204780e+06  2.3348212888349323e+06  2.9213621657623025e+06  4.0987289254059903e+06  3.7472905383673846e+06  3.7972832292021890e+06  3.7370552756831748e+06  4.1680961966823870e+06  4.1834743343631653e+06  4.1443245595309348e+06  4.2033191633092957e+06  4.9668719048017012e+06  4.9079165433740467e+06  3.7216582082251101e+06  3.2830940443376480e+06  3.2279401223197617e+06  3.3880140413501756e+06  3.2384604225437436e+06  3.0571073072368535e+06  3.3705308195450064e+06  3.9443983201435530e+06  3.6684618408036833e+06  5.6897602010736195e+06  4.0154898830162142e+06  3.4914763820419810e+06  4.8233898054630477e+06  5.0839703990870574e+06  5.3105262785493238e+06  5.1881486767972950e+06  1.5953948074896520e+06  1.1516750200703761e+06  1.6843086396857460e+06  4.2176951487267744e+06  1.3498414217451718e+06  4.2280117554750917e+06  2.6353913273597625e+06  2.0707048680951092e+06  4.2023420658142725e+06  3.3990660106307743e+06  5.2130298311596895e+06  1.0045087493661572e+06  1.2100548868035853e+06  9.6207933811767679e+05  1.0422662766590801e+06  9.4871610515554075e+05  4.7273638656810522e+06  2.6991858716112413e+06  2.8002886684805281e+06  2.7536095285170786e+06  5.6903654428028371e+06  4.4416045858572908e+06  4.1016185714726569e+06  4.0736148913939591e+06  4.0946196855654093e+06  1.0153114508902568e+06  5.3493042098173490e+06  5.3829055341799781e+06  1.6137473224626686e+06  1.5729958555431189e+06  3.3112917268095254e+06  3.4363749784124135e+06  2.7857808387096678e+06  3.8709992853922546e+06  4.6689531183571434e+06  4.7626526310109990e+06  4.5802702337153265e+06  4.7981724507227875e+06  2.3162728553134743e+06  1.8298567171589655e+06  2.1145516796200871e+06  1.9910140090902993e+06  5.3591472692697998e+06  1.5413014186330088e+06  1.8810232456578417e+06  2.0616833704567077e+06  3.9202440198407709e+06  3.9439578093531481e+06  3.9829800875378596e+06  3.8016450456484072e+06  1.9160043383760680e+06  1.4648426676270361e+06  1.7504178397381918e+06  3.6999359266224499e+06  5.5819756541435085e+06  5.6235572705459120e+06  5.6670348896275070e+06  4.2351564765909258e+06  5.2276489330108482e+06  3.8833325923917242e+06  3.3533997538706730e+06  3.2692068785244967e+06  3.4009734988556597e+06  5.0136964672880331e+06  4.6769472480263114e+06  4.7598139031014536e+06  9.5063117925559112e+05  9.3707357388536865e+05  9.6052250695621583e+05  3.6165043220080347e+06  3.7394086699915868e+06  3.7230713871359290e+06  3.5801590369366650e+06  5.1516399295748966e+06  1.4250385703385812e+06  1.3810106411307999e+06  1.4239663524980482e+06  4.2369118040588936e+06  4.2071700050236648e+06  4.2217432628385322e+06  2.7876887412431687e+06  2.9157645063069742e+06  2.9852688337324518e+06  1.7467330668275433e+06  1.2939500113208971e+06  1.2506395586319873e+06  4.2489123711893978e+06  4.2796877763085756e+06  4.2653585414516954e+06  4.2261140346498583e+06  4.2366264271299960e+06  4.2250147945053820e+06  4.2415633018158823e+06  3.0220072810918926e+06  1.3532505359186602e+06  3.4114671264490476e+06  5.3008519406458223e+06  3.4996968790630363e+06  3.4485427296523289e+06  9.5980733904533356e+05  1.3512337679468307e+06  1.3971637399931992e+06  1.6639787216822337e+06  1.5422174754144305e+06  1.2406145435942409e+06  3.9249162107977257e+06  3.8642159418552569e+06  3.8129064406830533e+06  4.7514286009809645e+06  4.7434602936297804e+06  1.8229406480782537e+06  2.0301055303436709e+06  2.5597532590067596e+06  2.6816014548082971e+06  2.9423966915673432e+06  2.4286661603971450e+06  2.0276317004872195e+06  1.9847898873095119e+06  3.0681703332230267e+06  5.6788572381016267e+06  4.0622297023498812e+06  4.1731905377180055e+06  3.9909324829874951e+06  5.3176619145179242e+06  5.3381317487672325e+06  5.2736211446203711e+06  3.4874441336417287e+06  3.6464304134948896e+06  3.5320837541330890e+06  2.9951582007887419e+06  3.7981522662101313e+06  3.7650274608018491e+06  1.7196973427079711e+06  1.7864353424217375e+06  5.0417292197443573e+06  5.0275199951705858e+06  5.0979684790520975e+06  2.0601496944328884e+06  1.3095609506031442e+06  </DataArray> 
</PointData> 
</Piece>
</UnstructuredGrid>
</VTKFile>