<?xml version="1.0"?>
<VTKFile type="UnstructuredGrid"  version="0.1"  >
<UnstructuredGrid>
<Piece  NumberOfPoints="784" NumberOfCells="1320">
<Points>
<DataArray  type="Float64"  NumberOfComponents="3"  format="ascii">266913.131276 586512.314988 0  266738.13716 587762.325998 0  266363.132677 589012.328643 0  266175.641078 590169.601714 0  265666.575631 591040.7699119999 0  264875.64001 591687.766419 0  264900.636161 591845.049083 0  266088.14152 592012.3229499999 0  265561.959259 592661.17101 0  264288.136855 593037.368683 0  263865.194033 593999.8486949999 0  263850.641856 593236.729596 0  263625.634872 592756.525286 0  262689.574249 593299.848918 0  262475.636737 594003.0907310001 0  261934.554452 594340.929792 0  261725.631329 594932.094409 0  261729.256443 595728.498809 0  262138.136044 595012.330523 0  262288.141035 596262.333669 0  261488.994028 597511.480605 0  261234.15567 598316.338928 0  260815.635063 599014.863821 0  261400.643658 599389.7367680001 0  261322.963374 600022.185065 0  261119.455248 600931.061306 0  261607.436504 601293.0629359999 0  260807.446929 602089.899812 0  260025.642878 602988.868697 0  259613.135827 603937.3854499999 0  259050.643123 604100.987861 0  258411.880065 603988.6335979999 0  257764.357469 604449.872569 0  257971.239668 605320.429125 0  258041.396867 605740.635381 0  257188.143339 606987.394312 0  256038.141198 608112.3554550001 0  254788.141633 609087.4026939999 0  253588.140656 609812.362881 0  252338.135706 609737.4048949999 0  251088.138116 609787.404055 0  249963.12851 610287.399466 0  248613.130524 610462.365857 0  247363.132198 610687.407659 0  246113.130532 610837.411551 0  245832.347438 610918.209918 0  245016.946433 610958.5639439999 0  244313.129646 610762.372259 0  244400.622144 611378.093316 0  243939.669208 612460.8930899999 0  242960.649733 611984.892792 0  242170.381438 611919.647351 0  241888.122919 611112.375656 0  241393.380757 610467.6456149999 0  240594.157528 611306.369822 0  240525.621947 610804.648112 0  240363.123632 610512.3745050001 0  239113.123247 610262.374278 0  239813.12126 609037.412459 0  240588.122952 607812.368199 0  241013.119545 606625.9534560001 0  241454.373249 605724.888025 0  242238.120107 604687.3993 0  243088.121248 603462.362766 0  242860.319451 603007.3932640001 0  241563.116617 603812.361344 0  241778.400913 604327.642217 0  242059.837234 604824.879102 0  241475.620201 604923.2402390001 0  241462.182234 605449.881372 0  240906.219606 605674.888222 0  240241.856192 606891.125066 0  239891.734044 607841.012479 0  239048.653431 608724.889805 0  238118.054545 608974.895967 0  238888.111029 607337.406468 0  239738.119992 606212.362729 0  240288.12044 605687.4075229999 0  240380.212307 604729.521696 0  239347.309632 604603.204501 0  238888.112036 604387.408787 0  237913.11173 604687.401386 0  236784.172023 604499.882783 0  236883.408793 603717.08334 0  236154.933927 603595.565605 0  235688.103943 602912.369264 0  235763.108033 601662.366516 0  236363.110805 600412.35884 0  236738.107995 599162.356577 0  236525.607944 598482.2412899999 0  236138.109208 599362.357613 0  235725.063048 600325.4466510001 0  235091.948926 601408.5220979999 0  235188.10921 600312.366344 0  234375.602405 600833.9674270001 0  234663.109308 599912.358011 0  234138.105122 600062.365644 0  233955.307245 599029.561063 0  233338.103791 598387.401556 0  233988.09795 597862.356384 0  235138.101489 596637.3947750001 0  235563.1039 595387.392428 0  236513.103639 594212.356312 0  237163.10684 592987.3929869999 0  238313.103031 591862.3515540001 0  239513.107028 590812.3512640001 0  240638.102135 589787.387271 0  241463.109549 588587.378486 0  242294.489816 587443.735215 0  242913.101099 586512.341804 0  243544.066915 585474.859604 0  243040.448415 585184.975583 0  242438.10214 585337.38015 0  241313.102353 586562.339499 0  240538.107104 587787.382449 0  240114.641085 588588.939407 0  239388.100256 589437.382238 0  238188.104456 590512.346358 0  236938.100507 591362.349798 0  235813.10453 592537.396388 0  234864.502938 593178.7753880001 0  234463.097651 592862.357267 0  235113.0965 591662.3545979999 0  235713.101522 590412.346099 0  235777.688431 589976.7582779999 0  234943.583145 590706.265132 0  234462.482256 591490.2841159999 0  233801.497784 592112.940187 0  233388.099101 591787.394208 0  234013.093099 590437.393065 0  234776.217248 587148.7548100001 0  235163.093726 586562.3486189999 0  235313.098918 585483.229012 0  235250.59732 584662.298153 0  235588.093896 583337.379493 0  236329.432041 582199.858992 0  237188.096234 581462.3349939999 0  237463.088521 580212.335511 0  238350.592558 579057.652616 0  238591.415797 578574.847681 0  238313.094106 577612.328905 0  239229.696732 577695.769664 0  240195.161018 577513.008613 0  240614.996733 577149.8518770001 0  240663.091715 577412.332622 0  240288.092486 578662.334085 0  239942.357258 579508.095811 0  240438.100019 580212.3334220001 0  241338.095553 580387.375355 0  241238.099828 579137.369157 0  241788.097003 577887.370889 0  241983.554649 577241.9220939999 0  242054.178239 576927.8105029999 0  242588.100699 575737.366175 0  243149.324833 574898.583978 0  243695.278626 573919.517981 0  244268.494418 573724.8454239999 0  244995.134063 573930.2767810001 0  245417.314363 573391.601898 0  243450.599125 571859.479773 0  245776.797908 572599.8353060001 0  246779.639852 572973.285167 0  248034.741935 573186.082054 0  249413.10651 573162.3205520001 0  250496.922226 573271.1521899999 0  251613.105126 573237.3551319999 0  252421.824577 572846.032906 0  253256.245022 572580.4733130001 0  253739.471933 571960.9547369999 0  254174.511864 572149.8346569999 0  254484.944333 571684.194807 0  254384.108649 570891.346712 0  254344.002752 570218.26407 0  255025.609604 570829.0294979999 0  255715.005913 570489.264586 0  256218.846343 570774.828355 0  256834.349083 570508.5908 0  257390.092515 570014.308325 0  257624.431042 568493.478911 0  259355.811717 569380.021819 0  260033.372814 569617.066669 0  262679.741751 570320.699974 0  263289.115756 569524.817815 0  263463.114338 570512.301061 0  264638.198419 570687.3443539999 0  265058.220065 571334.378467 0  265447.561421 572077.90485 0  265488.125257 573137.3446020001 0  265131.937715 573963.293593 0  265432.389648 575093.068786 0  265638.122314 576338.029955 0  265750.630817 577371.8281319999 0  265738.570663 578561.9098850001 0  265875.630866 579139.630549 0  266213.129247 579862.311842 0  266563.130472 581112.314509 0  266238.135356 582362.310259 0  265938.12863 583612.320897 0  265738.131342 584762.3210189999 0  266875.638633 585365.358768 0  264018.7239399826 593650.4646671159 0  262236.3944351029 595831.1252656333 0  241846.246678 605206.1436625 0  240200.622106 608424.8903290001 0  240943.4862974102 610939.7757535663 0  236550.6094 599787.3577085 0  238528.1212051503 608102.9081793013 0  244413.4891967989 572609.5960859474 0  236382.0474488751 598808.3067022427 0  235369.601910944 600933.5380148316 0  235413.099011 591037.3503485 0  235446.2251831186 590266.6553871984 0  240475.5921005 578037.3333535 0  240413.173949154 577324.4280286073 0  240574.037899 606283.0066440001 0  263857.9179445 593618.2891454998 0  264153.4303974913 593343.916675058 0  242042.1833925 604946.7714812499 0  241650.3099635 605465.51584375 0  244613.6985165 572229.6575395 0  236631.8579695 598822.2989335 0  235140.029068 600860.444221 0  241767.7287175 604874.0596705 0  242140.15174975 604817.0853906251 0  234781.8558075 600573.1668855001 0  242091.167571125 604881.9284359375 0  234519.3558565 600373.162719 0  254604.8337712102 583989.0014118921 0  250699.5846056537 594617.3297041012 0  250540.4796469513 602258.2940568649 0  248483.7490186612 580334.7345534252 0  258549.2190328319 577893.951823392 0  257067.0067473103 590016.5327808241 0  243285.0921999099 596333.923437875 0  248333.1386145258 589098.0389905117 0  256142.8445072741 595883.3911551933 0  260245.1368072523 583315.2785712298 0  253472.3380211276 578932.2908163272 0  246432.3347504817 599884.5019511909 0  261555.9240922556 588041.186709004 0  247293.1100123104 605823.8307887657 0  246458.2798550911 593168.8646574575 0  252840.0183145193 588226.5564648228 0  249828.2874404451 584740.7888937403 0  255409.5660975206 600458.8956828594 0  260819.9733392385 574219.403683011 0  252584.2262054711 605722.6603825617 0  254049.8830611471 592547.4852571967 0  250015.4356193061 598425.2225922942 0  245872.072249477 577604.9761853142 0  262002.1583249522 579753.4663046852 0  257732.6630933878 586227.970805314 0  250242.5556457866 577017.3316409125 0  244921.6453001869 581816.6358421432 0  256520.3890639471 580904.824006648 0  240779.0970645865 599524.6679555867 0  257100.1829219198 574459.5922545703 0  239912.2630002034 595231.1172704464 0  244703.0875078634 590068.6945953515 0  242549.5490268674 592874.3693043783 0  251586.0465921376 581796.2215047925 0  246643.189997516 596527.447801719 0  251049.7658069622 591057.6752245198 0  253014.5731561695 596998.6601086652 0  238680.2197353724 584542.2309791476 0  259715.365803504 591937.1938619445 0  254097.157218761 575731.4494927844 0  246806.6408589328 586139.0877599345 0  246136.1179750556 602959.471719323 0  253520.7033332401 602835.180253843 0  244125.4295793909 607538.9817227355 0  252546.8895354472 599881.3279113505 0  258289.0983523553 600397.640191779 0  247518.7952199645 583037.3718217331 0  263140.3959879661 582529.2228421422 0  262894.8586894067 585442.3590432997 0  256968.6320599076 593040.7691844478 0  243573.0187527719 600218.2795730785 0  258888.5766127351 595139.7745218446 0  262588.7569809347 576734.8569237856 0  259318.4257992262 580601.2540325444 0  249963.3812725965 607065.7205847671 0  257494.5307999607 583482.5893534871 0  258906.4757205145 572278.8089438241 0  237751.446593475 587300.5805003279 0  255142.4708720699 604956.7580261135 0  258485.4978753244 597756.9250383095 0  255516.7820591553 587791.39641967 0  239758.4692108706 601926.8203218657 0  255873.0092222999 577739.5085867504
[...]
<PointData  Scalars="f_24704-0"> 
<DataArray  type="Float64"  Name="f_24704-0"  format="ascii">1.2737386599343341e+07  1.2755581085463323e+07  1.2774792057100510e+07  1.2789823911029032e+07  1.2799194893978084e+07  1.2813028166905219e+07  1.2818729500222521e+07  1.2824765225404557e+07  1.2824365329241877e+07  1.2824964932318525e+07  1.2827196151858313e+07  1.2826034631712919e+07  1.2825321077292658e+07  1.2845934777070548e+07  1.2868253223755477e+07  1.2893515882953485e+07  1.2936977024066428e+07  1.2997451236102266e+07  1.3007259528143715e+07  1.3015684760499997e+07  1.3064570601418706e+07  1.3106445718834985e+07  1.3158766402548974e+07  1.3190877597684564e+07  1.3206200152024234e+07  1.3240205977553252e+07  1.3250633940593263e+07  1.3267052623909244e+07  1.3302191020769659e+07  1.3327982533707611e+07  1.3335632282376533e+07  1.3357680512689069e+07  1.3420593376584219e+07  1.3476799842873506e+07  1.3487247012089642e+07  1.3531452317734979e+07  1.3579207538964510e+07  1.3620946684268564e+07  1.3647551748639865e+07  1.3669731923786582e+07  1.3702583073754100e+07  1.3735033255177479e+07  1.3765906385169001e+07  1.3795030330347290e+07  1.3822061945017936e+07  1.3827793074755577e+07  1.3842321353171714e+07  1.3860092979570836e+07  1.3873055138248248e+07  1.3878737702341400e+07  1.3879983085625457e+07  1.3881156748197330e+07  1.3880978155675396e+07  1.3883165542056931e+07  1.3887961575992720e+07  1.3887594888671048e+07  1.3887629628207676e+07  1.3889394705313308e+07  1.3884291215692392e+07  1.3865377922520470e+07  1.3839755398045361e+07  1.3815315648440018e+07  1.3770539138552655e+07  1.3689731482153052e+07  1.3673379983340647e+07  1.3737742513004292e+07  1.3758126585088531e+07  1.3763556607636765e+07  1.3769023991819493e+07  1.3777643957597747e+07  1.3789624131699542e+07  1.3832842156453369e+07  1.3846705703445880e+07  1.3853159066737711e+07  1.3854451422610570e+07  1.3847474267331826e+07  1.3826489421382099e+07  1.3801650238205202e+07  1.3767086313456070e+07  1.3759641194755733e+07  1.3761140273301570e+07  1.3764903216184247e+07  1.3766030947984284e+07  1.3764354840017466e+07  1.3763537923590498e+07  1.3761964392282523e+07  1.3754943241673887e+07  1.3736004560111420e+07  1.3706420942337228e+07  1.3697632711313300e+07  1.3715697890185218e+07  1.3724071831319535e+07  1.3726792260632733e+07  1.3724582180592924e+07  1.3725580104629599e+07  1.3723272303455107e+07  1.3722821946574811e+07  1.3719586877291761e+07  1.3718013571474645e+07  1.3714126774751028e+07  1.3681703264375241e+07  1.3644231602729922e+07  1.3588364901075736e+07  1.3525371293236993e+07  1.3434960864308182e+07  1.3304823317654260e+07  1.3140698155872412e+07  1.2973067211354582e+07  1.2843619374332739e+07  1.2775230976250287e+07  1.2774190519921528e+07  1.2851152762593405e+07  1.2950622412646675e+07  1.3170349183103390e+07  1.3315457263510406e+07  1.3371967315872850e+07  1.3419610115756085e+07  1.3468878628611330e+07  1.3500347665182712e+07  1.3520852323958574e+07  1.3525254050761413e+07  1.3525296297948528e+07  1.3518507586361390e+07  1.3500108721007932e+07  1.3493913953360200e+07  1.3508692928950651e+07  1.3517500521913875e+07  1.3520251088820066e+07  1.3520249116701113e+07  1.3511246455662265e+07  1.3451765234053867e+07  1.3431132120783664e+07  1.3395507590630233e+07  1.3374125402488038e+07  1.3343091183519151e+07  1.3308465872085636e+07  1.3270636898526136e+07  1.3248950898310624e+07  1.3247569603864722e+07  1.3255471565721095e+07  1.3262478952713024e+07  1.3262064238330044e+07  1.3264948482006144e+07  1.3266281130100019e+07  1.3266118157836333e+07  1.3255830009406032e+07  1.3221640856091170e+07  1.3131344494649295e+07  1.2957453008409629e+07  1.2845083666541850e+07  1.2781583270226723e+07  1.2755703095158994e+07  1.2746619374387261e+07  1.2714216416419713e+07  1.2690641113653090e+07  1.2670600188803939e+07  1.2660440917000372e+07  1.2624521348179791e+07  1.2600212380140843e+07  1.2647153070339151e+07  1.2599602262485854e+07  1.2531323420665329e+07  1.2399933917446928e+07  1.2264675324282946e+07  1.2194327165408356e+07  1.2172923621475326e+07  1.2199962519317076e+07  1.2250927511787029e+07  1.2294786597656488e+07  1.2318781050575726e+07  1.2380739888916669e+07  1.2420540051102741e+07  1.2425933322926654e+07  1.2423593793674599e+07  1.2438343012999294e+07  1.2452007818586983e+07  1.2489518172447497e+07  1.2536702505490776e+07  1.2570464997752970e+07  1.2562546176871374e+07  1.2561432200373339e+07  1.2576029238430316e+07  1.2582757251363235e+07  1.2578932813111436e+07  1.2577860658285320e+07  1.2573241821089156e+07  1.2563209256865319e+07  1.2541957887827773e+07  1.2503505250464829e+07  1.2440919163371537e+07  1.2380138912790101e+07  1.2342509669590620e+07  1.2341470754182590e+07  1.2370956716901470e+07  1.2422170622186715e+07  1.2493211942627944e+07  1.2553874830548402e+07  1.2618459575982658e+07  1.2684399453466583e+07  1.2722399965758329e+07  1.2826915990115697e+07  1.3009313174640296e+07  1.3795887867630193e+07  1.3876985034449881e+07  1.3887372065917645e+07  1.3722004131402832e+07  1.3852613142578809e+07  1.2635594833458222e+07  1.3706394019393381e+07  1.3726251638470592e+07  1.3510664462823965e+07  1.3499610338993743e+07  1.3263496680663737e+07  1.3266004664987056e+07  1.3814980445759393e+07  1.2826917190270092e+07  1.2826228659922199e+07  1.3783955041789258e+07  1.3806462189313987e+07  1.2635596900188847e+07  1.3699017781856123e+07  1.3726253087590985e+07  1.3764394346720751e+07  1.3777470490608858e+07  1.3725168426551813e+07  1.3780759774836794e+07  1.3725155305433676e+07  1.2333761952811815e+07  1.2798774203086229e+07  1.3354873319922933e+07  1.2248426942180578e+07  1.1773868907964991e+07  1.2417852530122956e+07  1.3387315888989428e+07  1.2478333184372574e+07  1.2903950190448565e+07  1.2456344648426263e+07  1.1769824259932984e+07  1.3304482803743405e+07  1.2701811236563958e+07  1.3683713445459262e+07  1.2872818413555138e+07  1.2194449140886150e+07  1.2507326929395802e+07  1.3119976886023909e+07  1.2352720349381572e+07  1.3568812637352187e+07  1.2577750269367609e+07  1.3012906944939936e+07  1.2461226810307095e+07  1.2241792885796921e+07  1.2470330259960659e+07  1.2046987107867712e+07  1.2623031328667393e+07  1.1992636355453953e+07  1.3639812471354390e+07  1.2168898277044101e+07  1.3513403839106744e+07  1.2713488399671309e+07  1.3197653815824203e+07  1.2289357148822598e+07  1.3152022923624326e+07  1.2446668172033610e+07  1.2912689845864080e+07  1.3257422592285350e+07  1.2735215671317210e+07  1.1919221434234783e+07  1.2593291686237989e+07  1.3541919765473861e+07  1.3369266798766274e+07  1.3814836749116778e+07  1.3104739059216039e+07  1.3200769939023307e+07  1.2522113463278465e+07  1.2523789835389255e+07  1.2662829916574348e+07  1.2649804984487657e+07  1.3544145960491296e+07  1.2919132983678726e+07  1.2266404597100079e+07  1.2055789521164713e+07  1.3673959166367503e+07  1.2362762070409540e+07  1.2452770805800468e+07  1.3399671207472680e+07  1.3489401226374777e+07  1.3067063855246132e+07  1.2227832949224424e+07  1.3724804522137109e+07  1.1654478620163379e+07  1.2775520207063613e+07  1.2923497590934651e+07  1.2693371966112932e+07  1.2668799194177940e+07  1.2125189149613697e+07  1.2744948962704161e+07  1.2301035942486946e+07  1.2082907744167544e+07  1.2328336043144854e+07  1.2603241111933233e+07  1.2582836138636574e+07  1.3782252798860181e+07  1.3550293397396091e+07  1.2390091304631183e+07  1.3716299531766959e+07  1.3367746668145301e+07  1.3200097529115435e+07  1.3634895630222544e+07  1.3177076824246194e+07  1.2683268586357405e+07  1.2962223646215137e+07  1.3299244002283977e+07  1.2413968730657911e+07  1.3482285240946852e+07  1.2232723876438159e+07  1.2791401188471010e+07  1.2522102186507618e+07  1.2197846527205810e+07  1.2924370190265810e+07  1.3538116041033542e+07  1.2598141313814482e+07  1.3154424132110037e+07  1.2633927239629230e+07  1.3377465444559399e+07  1.2067738615097897e+07  1.2365981398916736e+07  1.2407448372191211e+07  1.3622799888089433e+07  1.2912074787934167e+07  1.2398895702404995e+07  1.3627993097949583e+07  1.2635985326565275e+07  1.3704597368463010e+07  1.2429456690266246e+07  1.3785052156717949e+07  1.3780217894543601e+07  1.2674633892407108e+07  1.2817244902139099e+07  1.3782685726676466e+07  1.3822039419671886e+07  1.3681616274518587e+07  1.3706657676988441e+07  1.3486609287166100e+07  1.2323065928000472e+07  1.3597281002337249e+07  1.3501627412899012e+07  1.2731032866424836e+07  1.2816452356735688e+07  1.2782979981349589e+07  1.3812816432153895e+07  1.3779238001668833e+07  1.2879194368841628e+07  1.3748483834219700e+07  1.3734952873220708e+07  1.3758000018835010e+07  1.3825400277856613e+07  1.2777758154741999e+07  1.2511604313288327e+07  1.3489512058588011e+07  1.2428988297237055e+07  1.2801389965460267e+07  1.2334056685428318e+07  1.3446432666422272e+07  1.3871341154530242e+07  1.3353336936898941e+07  1.3500143363544296e+07  1.3688584546956722e+07  1.2901508863150969e+07  1.2534157136449719e+07  1.3493834023238976e+07  1.2090981539093569e+07  1.2658739589999139e+07  1.3704569397485316e+07  1.3675222223310240e+07  1.3215500581718855e+07  1.3871229610979853e+07  1.2164151828681320e+07  1.3726435870292718e+07  1.3072428857741246e+07  1.2553610651722692e+07  1.2346279408685066e+07  1.2168873125609973e+07  1.3320063875682503e+07  1.3647585633342240e+07  1.3622278959283222e+07  1.3207735173356509e+07  1.3801773083195163e+07  1.2959423452549584e+07  1.2620241533382868e+07  1.2620934135140097e+07  1.2499166742526313e+07  1.3782397485268651e+07  1.3790087729666239e+07  1.3793162948959438e+07  1.3489623602578765e+07  1.3655823906973109e+07  1.3798290176976718e+07  1.3747858090786787e+07  1.3359971911343969e+07  1.3886269211906279e+07  1.3885020482206250e+07  1.3073342090057719e+07  1.2328890036438745e+07  1.3243511172845980e+07  1.3660854239856262e+07  1.2857394955846380e+07  1.3278134796678012e+07  1.3875420316726170e+07  1.3080823591506077e+07  1.3360652828815572e+07  1.2624773616153367e+07  1.2745769863366632e+07  1.2729523299616631e+07  1.2761015253551513e+07  1.3717546954690067e+07  1.2816135080791574e+07  1.2823842504815370e+07  1.2807599313962346e+07  1.2822044475077601e+07  1.2793720058269378e+07  1.2562968542185895e+07  1.2530195466540454e+07  1.2813057116298232e+07  1.2706963815720068e+07  1.3523917241151396e+07  1.3523492815657090e+07  1.3881823895013191e+07  1.2990899929098589e+07  1.2809220030911522e+07  1.2684958314957086e+07  1.2743086935021285e+07  1.2790542632583268e+07  1.2899639026882013e+07  1.2810885931426050e+07  1.2883511560525721e+07  1.3065158009992275e+07  1.2915260628615536e+07  1.3006785312469946e+07  1.3196385781051941e+07  1.3093972892384134e+07  1.2806043067784069e+07  1.2960994953572292e+07  1.2324285606540719e+07  1.2374260391699487e+07  1.2287186371744106e+07  1.2225882771213001e+07  1.2227135398673916e+07  1.2175039968716148e+07  1.2187181222704258e+07  1.2160263709931638e+07  1.2186057872818673e+07  1.2232086549260275e+07  1.2391029616568722e+07  1.2358598931406122e+07  1.2361220495727638e+07  1.2333502892459920e+07  1.2340834177665593e+07  1.2353830113842849e+07  1.2340749087283606e+07  1.2325452583698560e+07  1.2397308153719785e+07  1.2354655040195124e+07  1.2411999942029290e+07  1.2378734880825467e+07  1.2458762461466260e+07  1.2555418074010188e+07  1.2496891412095038e+07  1.2374788467682205e+07  1.2227917724673335e+07  1.2342814829298990e+07  1.2312229245141393e+07  1.2886342312896840e+07  1.2849004024255181e+07  1.2753876840688311e+07  1.2847195469874946e+07  1.3236538259466698e+07  1.3461390834339693e+07  1.3272790651263688e+07  1.3412618891980540e+07  1.2384553012970891e+07  1.2187957090390787e+07  1.2189300917250687e+07  1.2271930923233360e+07  1.1988244339214342e+07  1.1771425115370380e+07  1.1909166162882892e+07  1.1855613446961116e+07  1.1683003274151102e+07  1.1905671650415545e+07  1.2584746499098707e+07  1.2495661176171731e+07  1.2313355114634588e+07  1.2324166069610141e+07  1.2504342154931353e+07  1.3456672296950746e+07  1.3299916215949727e+07  1.2439523046631349e+07  1.2511703976524593e+07  1.2535112402324377e+07  1.2451921107845243e+07  1.2518751376579741e+07  1.2508475099325264e+07  1.2752205505610015e+07  1.2904300321248896e+07  1.2840555586192345e+07  1.2330918116655786e+07  1.2492871769075654e+07  1.2581381695801048e+07  1.2282716724219196e+07  1.1876062794905633e+07  1.1822597253374001e+07  1.2037062442464171e+07  1.1727522060206952e+07  1.1667516280859504e+07  1.1923998422733372e+07  1.1923295535829781e+07  1.3134009404706895e+07  1.3412173128332444e+07  1.3227145667724732e+07  1.3460990648130974e+07  1.3619969923832910e+07  1.3043989166022975e+07  1.2723477000344442e+07  1.3011899128370043e+07  1.2877079876717834e+07  1.2153739293350656e+07  1.2220834590190129e+07  1.2293946114360446e+07  1.2173044826890020e+07  1.3242792619520744e+07  1.3091319292175505e+07  1.3162875189413479e+07  1.3019270149133606e+07  1.2248169958516620e+07  1.2290635714998972e+07  1.2513717962837053e+07  1.2586841045884596e+07  1.2431204258872341e+07  1.3050737771873955e+07  1.2943916349998858e+07  1.3108852217466058e+07  1.2947960270856125e+07  1.2549341445299378e+07  1.2396659664923217e+07  1.2313372310539754e+07  1.2391886390470453e+07  1.2494271206702355e+07  1.2593394211201312e+07  1.2392474555582868e+07  1.2203936222028039e+07  1.2141213148649963e+07  1.2086417568736820e+07  1.2332454959429353e+07  1.2301866303351648e+07  1.2443672758129377e+07  1.2361317834323950e+07  1.2522948351096785e+07  1.2318101301413571e+07  1.1905588395551817e+07  1.2030026347432034e+07  1.2174612270901596e+07  1.2130622750535183e+07  1.2000995208420627e+07  1.2096967226298675e+07  1.2540883412284421e+07  1.2793411742320806e+07  1.2630533188565591e+07  1.2487716329078497e+07  1.1995761668163989e+07  1.2207951714879781e+07  1.1726802878343735e+07  1.2046296196635608e+07  1.2031110657432426e+07  1.2333420908892004e+07  1.1870539725885723e+07  1.2074077102623435e+07  1.2255933112292849e+07  1.2324675239189172e+07  1.2166573187790437e+07  1.2625337912537429e+07  1.2650335903140349e+07  1.2798420538547043e+07  1.2856678998376004e+07  1.3169933183109865e+07  1.2202760540887492e+07  1.2179292839559302e+07  1.3035530668211898e+07  1.2559719240497505e+07  1.2379154355093539e+07  1.2365325439902380e+07  1.2537291135432085e+07  1.2985577810593290e+07  1.2936386400150500e+07  1.3208641470250513e+07  1.3175597916477408e+07  1.2680064751260670e+07  1.2641161289838830e+07  1.1756517312164210e+07  1.2012419817250714e+07  1.2049077697589269e+07  1.2522535801397519e+07  1.2595616638596831e+07  1.3359152872625276e+07  1.3502077152374487e+07  1.3238461351837046e+07  1.3464411510744408e+07  1.3324607745894685e+07  1.3161601787877435e+07  1.2997434672639044e+07  1.3077148470588773e+07  1.2407319295131564e+07  1.2464427806864781e+07  1.2443323541986564e+07  1.2785799509814514e+07  1.2176879154969063e+07  1.2279283589879343e+07  1.2305484733717907e+07  1.2222763206940552e+07  1.2494931651742242e+07  1.2219388458352704e+07  1.2416697523174208e+07  1.2196261955284780e+07  1.2695647611388832e+07  1.2845270631025184e+07  1.2909954598937793e+07  1.2996109425623389e+07  1.2996969733108966e+07  1.2645266156121839e+07  1.2645678220464151e+07  1.2517513178111056e+07  1.2309052690555174e+07  1.2124625523551336e+07  1.2258427280657019e+07  1.2256875755314743e+07  1.2237585657713696e+07  1.2606863140869571e+07  1.2399864530001357e+07  1.2322782949692216e+07  1.3337032714121146e+07  1.2274995302475454e+07  1.2256688633130323e+07  1.2554258933762854e+07  1.2725172064888336e+07  1.3038700835403174e+07  1.2941989484858869e+07  1.2361725408649122e+07  1.2375090975510884e+07  1.2249214038169743e+07  1.2835991909901185e+07  1.2306423086484114e+07  1.2987566862481438e+07  1.2093918727278816e+07  1.2123680822590191e+07  1.3070735571994040e+07  1.2332814571912725e+07  1.2867439842262978e+07  1.1862884734643791e+07  1.1736834393956376e+07  1.1808079918508042e+07  1.1721581969666634e+07  1.1885917158339089e+07  1.2501273178980984e+07  1.1807191187076669e+07  1.1892649230368635e+07  1.1840589619102800e+07  1.3314899821889287e+07  1.2318521042826865e+07  1.2161966594186220e+07  1.2173339602536211e+07  1.2218350497087980e+07  1.2222858718995670e+07  1.2941910442869045e+07  1.2968997447833175e+07  1.2277780218230486e+07  1.2316574889209785e+07  1.2416307600005703e+07  1.2395016338473054e+07  1.1964111216852829e+07  1.2504598927489325e+07  1.2430177378655870e+07  1.2499327422075499e+07  1.2385137543290997e+07  1.2542180739159441e+07  1.1892760667783331e+07  1.1969166448657969e+07  1.1966736944249330e+07  1.1984046735158794e+07  1.3045839623973122e+07  1.1947200155030530e+07  1.2016980943893803e+07  1.2133538106701853e+07  1.2265372819838608e+07  1.2177066632452130e+07  1.2211127850256536e+07  1.2318595069128670e+07  1.1650204466873258e+07  1.1734362235352749e+07  1.1693321655286927e+07  1.2507119440148680e+07  1.3158438423118139e+07  1.3205942720774824e+07  1.3271581661689946e+07  1.3129009071853334e+07  1.2969735004210452e+07  1.2232801962675063e+07  1.2185898563503370e+07  1.2152832274642916e+07  1.2224604610566076e+07  1.2653327068971068e+07  1.2558121098789496e+07  1.2582190429887092e+07  1.1983023040774966e+07  1.1986225866294798e+07  1.2053657392095588e+07  1.2371047047350526e+07  1.2422419988008829e+07  1.2367628765301438e+07  1.2302561430644242e+07  1.2813627548358126e+07  1.2320035819942510e+07  1.2299094789735124e+07  1.2313638976711117e+07  1.2950843723869290e+07  1.2946711946242202e+07  1.2943587019799661e+07  1.2081332035858858e+07  1.2129491017563727e+07  1.2197476815849056e+07  1.2105840467396609e+07  1.2325213017346643e+07  1.2301265394461958e+07  1.3040945709599761e+07  1.3130689157995967e+07  1.3079273068510177e+07  1.3037531047636494e+07  1.3033677895403460e+07  1.3072734300624065e+07  1.2995136791169927e+07  1.2263355420942875e+07  1.2316320985421849e+07  1.2353052551100831e+07  1.2911871509257765e+07  1.2225338083450673e+07  1.2215630919955654e+07  1.1917670024530608e+07  1.1694270559480384e+07  1.1994052832891041e+07  1.1902021871752571e+07  1.1667004924678644e+07  1.1746576335301265e+07  1.2409236586142834e+07  1.2361499883985966e+07  1.2459459606853990e+07  1.2482230375831295e+07  1.2524257117009649e+07  1.2365009319483927e+07  1.2443634843009369e+07  1.1777601426169313e+07  1.1866439653592050e+07  1.1972617388708528e+07  1.1810043380830180e+07  1.1676272393931603e+07  1.1677901615046354e+07  1.2053669888240308e+07  1.3286256836882370e+07  1.2178431830235455e+07  1.2208089553115040e+07  1.2216265813950164e+07  1.3043016058617366e+07  1.3038857130676623e+07  1.2999810246722737e+07  1.2346954384936485e+07  1.2448481172606690e+07  1.2317065261349473e+07  1.2164218575064534e+07  1.2433801488123214e+07  1.2494058696942512e+07  1.1885050367566239e+07  1.2039005956081111e+07  1.2703870332999080e+07  1.2670561328594357e+07  1.2754659996573988e+07  1.2028838101047192e+07  1.2293905226657018e+07  </DataArray> 
</PointData> 
</Piece>
</UnstructuredGrid>
</VTKFile>