<?xml version="1.0"?>
<VTKFile type="UnstructuredGrid"  version="0.1"  >
<UnstructuredGrid>
<Piece  NumberOfPoints="784" NumberOfCells="1320">
<Points>
<DataArray  type="Float64"  NumberOfComponents="3"  format="ascii">266913.131276 586512.314988 0  266738.13716 587762.325998 0  266363.132677 589012.328643 0  266175.641078 590169.601714 0  265666.575631 591040.7699119999 0  264875.64001 591687.766419 0  264900.636161 591845.049083 0  266088.14152 592012.3229499999 0  265561.959259 592661.17101 0  264288.136855 593037.368683 0  263865.194033 593999.8486949999 0  263850.641856 593236.729596 0  263625.634872 592756.525286 0  262689.574249 593299.848918 0  262475.636737 594003.0907310001 0  261934.554452 594340.929792 0  261725.631329 594932.094409 0  261729.256443 595728.498809 0  262138.136044 595012.330523 0  262288.141035 596262.333669 0  261488.994028 597511.480605 0  261234.15567 598316.338928 0  260815.635063 599014.863821 0  261400.643658 599389.7367680001 0  261322.963374 600022.185065 0  261119.455248 600931.061306 0  261607.436504 601293.0629359999 0  260807.446929 602089.899812 0  260025.642878 602988.868697 0  259613.135827 603937.3854499999 0  259050.643123 604100.987861 0  258411.880065 603988.6335979999 0  257764.357469 604449.872569 0  257971.239668 605320.429125 0  258041.396867 605740.635381 0  257188.143339 606987.394312 0  256038.141198 608112.3554550001 0  254788.141633 609087.4026939999 0  253588.140656 609812.362881 0  252338.135706 609737.4048949999 0  251088.138116 609787.404055 0  249963.12851 610287.399466 0  248613.130524 610462.365857 0  247363.132198 610687.407659 0  246113.130532 610837.411551 0  245832.347438 610918.209918 0  245016.946433 610958.5639439999 0  244313.129646 610762.372259 0  244400.622144 611378.093316 0  243939.669208 612460.8930899999 0  242960.649733 611984.892792 0  242170.381438 611919.647351 0  241888.122919 611112.375656 0  241393.380757 610467.6456149999 0  240594.157528 611306.369822 0  240525.621947 610804.648112 0  240363.123632 610512.3745050001 0  239113.123247 610262.374278 0  239813.12126 609037.412459 0  240588.122952 607812.368199 0  241013.119545 606625.9534560001 0  241454.373249 605724.888025 0  242238.120107 604687.3993 0  243088.121248 603462.362766 0  242860.319451 603007.3932640001 0  241563.116617 603812.361344 0  241778.400913 604327.642217 0  242059.837234 604824.879102 0  241475.620201 604923.2402390001 0  241462.182234 605449.881372 0  240906.219606 605674.888222 0  240241.856192 606891.125066 0  239891.734044 607841.012479 0  239048.653431 608724.889805 0  238118.054545 608974.895967 0  238888.111029 607337.406468 0  239738.119992 606212.362729 0  240288.12044 605687.4075229999 0  240380.212307 604729.521696 0  239347.309632 604603.204501 0  238888.112036 604387.408787 0  237913.11173 604687.401386 0  236784.172023 604499.882783 0  236883.408793 603717.08334 0  236154.933927 603595.565605 0  235688.103943 602912.369264 0  235763.108033 601662.366516 0  236363.110805 600412.35884 0  236738.107995 599162.356577 0  236525.607944 598482.2412899999 0  236138.109208 599362.357613 0  235725.063048 600325.4466510001 0  235091.948926 601408.5220979999 0  235188.10921 600312.366344 0  234375.602405 600833.9674270001 0  234663.109308 599912.358011 0  234138.105122 600062.365644 0  233955.307245 599029.561063 0  233338.103791 598387.401556 0  233988.09795 597862.356384 0  235138.101489 596637.3947750001 0  235563.1039 595387.392428 0  236513.103639 594212.356312 0  237163.10684 592987.3929869999 0  238313.103031 591862.3515540001 0  239513.107028 590812.3512640001 0  240638.102135 589787.387271 0  241463.109549 588587.378486 0  242294.489816 587443.735215 0  242913.101099 586512.341804 0  243544.066915 585474.859604 0  243040.448415 585184.975583 0  242438.10214 585337.38015 0  241313.102353 586562.339499 0  240538.107104 587787.382449 0  240114.641085 588588.939407 0  239388.100256 589437.382238 0  238188.104456 590512.346358 0  236938.100507 591362.349798 0  235813.10453 592537.396388 0  234864.502938 593178.7753880001 0  234463.097651 592862.357267 0  235113.0965 591662.3545979999 0  235713.101522 590412.346099 0  235777.688431 589976.7582779999 0  234943.583145 590706.265132 0  234462.482256 591490.2841159999 0  233801.497784 592112.940187 0  233388.099101 591787.394208 0  234013.093099 590437.393065 0  234776.217248 587148.7548100001 0  235163.093726 586562.3486189999 0  235313.098918 585483.229012 0  235250.59732 584662.298153 0  235588.093896 583337.379493 0  236329.432041 582199.858992 0  237188.096234 581462.3349939999 0  237463.088521 580212.335511 0  238350.592558 579057.652616 0  238591.415797 578574.847681 0  238313.094106 577612.328905 0  239229.696732 577695.769664 0  240195.161018 577513.008613 0  240614.996733 577149.8518770001 0  240663.091715 577412.332622 0  240288.092486 578662.334085 0  239942.357258 579508.095811 0  240438.100019 580212.3334220001 0  241338.095553 580387.375355 0  241238.099828 579137.369157 0  241788.097003 577887.370889 0  241983.554649 577241.9220939999 0  242054.178239 576927.8105029999 0  242588.100699 575737.366175 0  243149.324833 574898.583978 0  243695.278626 573919.517981 0  244268.494418 573724.8454239999 0  244995.134063 573930.2767810001 0  245417.314363 573391.601898 0  243450.599125 571859.479773 0  245776.797908 572599.8353060001 0  246779.639852 572973.285167 0  248034.741935 573186.082054 0  249413.10651 573162.3205520001 0  250496.922226 573271.1521899999 0  251613.105126 573237.3551319999 0  252421.824577 572846.032906 0  253256.245022 572580.4733130001 0  253739.471933 571960.9547369999 0  254174.511864 572149.8346569999 0  254484.944333 571684.194807 0  254384.108649 570891.346712 0  254344.002752 570218.26407 0  255025.609604 570829.0294979999 0  255715.005913 570489.264586 0  256218.846343 570774.828355 0  256834.349083 570508.5908 0  257390.092515 570014.308325 0  257624.431042 568493.478911 0  259355.811717 569380.021819 0  260033.372814 569617.066669 0  262679.741751 570320.699974 0  263289.115756 569524.817815 0  263463.114338 570512.301061 0  264638.198419 570687.3443539999 0  265058.220065 571334.378467 0  265447.561421 572077.90485 0  265488.125257 573137.3446020001 0  265131.937715 573963.293593 0  265432.389648 575093.068786 0  265638.122314 576338.029955 0  265750.630817 577371.8281319999 0  265738.570663 578561.9098850001 0  265875.630866 579139.630549 0  266213.129247 579862.311842 0  266563.130472 581112.314509 0  266238.135356 582362.310259 0  265938.12863 583612.320897 0  265738.131342 584762.3210189999 0  266875.638633 585365.358768 0  264018.7239399826 593650.4646671159 0  262236.3944351029 595831.1252656333 0  241846.246678 605206.1436625 0  240200.622106 608424.8903290001 0  240943.4862974102 610939.7757535663 0  236550.6094 599787.3577085 0  238528.1212051503 608102.9081793013 0  244413.4891967989 572609.5960859474 0  236382.0474488751 598808.3067022427 0  235369.601910944 600933.5380148316 0  235413.099011 591037.3503485 0  235446.2251831186 590266.6553871984 0  240475.5921005 578037.3333535 0  240413.173949154 577324.4280286073 0  240574.037899 606283.0066440001 0  263857.9179445 593618.2891454998 0  264153.4303974913 593343.916675058 0  242042.1833925 604946.7714812499 0  241650.3099635 605465.51584375 0  244613.6985165 572229.6575395 0  236631.8579695 598822.2989335 0  235140.029068 600860.444221 0  241767.7287175 604874.0596705 0  242140.15174975 604817.0853906251 0  234781.8558075 600573.1668855001 0  242091.167571125 604881.9284359375 0  234519.3558565 600373.162719 0  254604.8337712102 583989.0014118921 0  250699.5846056537 594617.3297041012 0  250540.4796469513 602258.2940568649 0  248483.7490186612 580334.7345534252 0  258549.2190328319 577893.951823392 0  257067.0067473103 590016.5327808241 0  243285.0921999099 596333.923437875 0  248333.1386145258 589098.0389905117 0  256142.8445072741 595883.3911551933 0  260245.1368072523 583315.2785712298 0  253472.3380211276 578932.2908163272 0  246432.3347504817 599884.5019511909 0  261555.9240922556 588041.186709004 0  247293.1100123104 605823.8307887657 0  246458.2798550911 593168.8646574575 0  252840.0183145193 588226.5564648228 0  249828.2874404451 584740.7888937403 0  255409.5660975206 600458.8956828594 0  260819.9733392385 574219.403683011 0  252584.2262054711 605722.6603825617 0  254049.8830611471 592547.4852571967 0  250015.4356193061 598425.2225922942 0  245872.072249477 577604.9761853142 0  262002.1583249522 579753.4663046852 0  257732.6630933878 586227.970805314 0  250242.5556457866 577017.3316409125 0  244921.6453001869 581816.6358421432 0  256520.3890639471 580904.824006648 0  240779.0970645865 599524.6679555867 0  257100.1829219198 574459.5922545703 0  239912.2630002034 595231.1172704464 0  244703.0875078634 590068.6945953515 0  242549.5490268674 592874.3693043783 0  251586.0465921376 581796.2215047925 0  246643.189997516 596527.447801719 0  251049.7658069622 591057.6752245198 0  253014.5731561695 596998.6601086652 0  238680.2197353724 584542.2309791476 0  259715.365803504 591937.1938619445 0  254097.157218761 575731.4494927844 0  246806.6408589328 586139.0877599345 0  246136.1179750556 602959.471719323 0  253520.7033332401 602835.180253843 0  244125.4295793909 607538.9817227355 0  252546.8895354472 599881.3279113505 0  258289.0983523553 600397.640191779 0  247518.7952199645 583037.3718217331 0  263140.3959879661 582529.2228421422 0  262894.8586894067 585442.3590432997 0  256968.6320599076 593040.7691844478 0  243573.0187527719 600218.2795730785 0  258888.5766127351 595139.7745218446 0  262588.7569809347 576734.8569237856 0  259318.4257992262 580601.2540325444 0  249963.3812725965 607065.7205847671 0  257494.5307999607 583482.5893534871 0  258906.4757205145 572278.8089438241 0  237751.446593475 587300.5805003279 0  255142.4708720699 604956.7580261135 0  258485.4978753244 597756.9250383095 0  255516.7820591553 587791.39641967 0  239758.4692108706 601926.8203218657 0  255873.0092222999 577739.5085867504
[...]
<PointData  Scalars="f_49376-0"> 
<DataArray  type="Float64"  Name="f_49376-0"  format="ascii">1.9333755515426245e+07  1.9385230268431198e+07  1.9448079053227101e+07  1.9500243762619957e+07  1.9536902416988607e+07  1.9591233878840629e+07  1.9608210733471658e+07  1.9619546659970958e+07  1.9620160175617278e+07  1.9635381601466615e+07  1.9640764562449310e+07  1.9640367606417999e+07  1.9654751222881582e+07  1.9759305746037394e+07  1.9829683607298568e+07  1.9895879459493209e+07  1.9989764984661262e+07  2.0098868924303439e+07  2.0112370003373429e+07  2.0129482169928491e+07  2.0220995499956168e+07  2.0295523763472378e+07  2.0383576983235031e+07  2.0432822387005579e+07  2.0456672692286056e+07  2.0508869190989446e+07  2.0524225867070351e+07  2.0551183245153319e+07  2.0606505846778933e+07  2.0645434951819655e+07  2.0657515022243768e+07  2.0691746318265051e+07  2.0779253393331923e+07  2.0851420764429010e+07  2.0864562265633393e+07  2.0921400153296169e+07  2.0983888797916666e+07  2.1039100211979799e+07  2.1075137339542955e+07  2.1106606071374439e+07  2.1153130513081327e+07  2.1198304115296725e+07  2.1241327755441673e+07  2.1281900694716424e+07  2.1319489499274898e+07  2.1327437952922579e+07  2.1347630393807959e+07  2.1372258980971709e+07  2.1389966597172871e+07  2.1397728359037988e+07  2.1399562527519293e+07  2.1401282058214221e+07  2.1401247405766420e+07  2.1404641092876036e+07  2.1411301634997938e+07  2.1410814904950690e+07  2.1410909998669796e+07  2.1413389648096450e+07  2.1406582006172121e+07  2.1381894605618842e+07  2.1349478757946175e+07  2.1319525043203291e+07  2.1266692784468561e+07  2.1173945333919577e+07  2.1150449622834392e+07  2.1221686788031712e+07  2.1248306111821525e+07  2.1255589213150419e+07  2.1263253325140797e+07  2.1275447278194882e+07  2.1292944412375577e+07  2.1356915436779685e+07  2.1377684123320624e+07  2.1387430390438303e+07  2.1389390356100116e+07  2.1378847720477611e+07  2.1347439123428307e+07  2.1310633223017797e+07  2.1259631403264150e+07  2.1246865099534862e+07  2.1248005457089968e+07  2.1252158748054456e+07  2.1253392110833585e+07  2.1250746401630830e+07  2.1249129682285409e+07  2.1246601928982854e+07  2.1235922285547882e+07  2.1207490145177066e+07  2.1162703272813018e+07  2.1148297813431989e+07  2.1174930570218880e+07  2.1187714580513041e+07  2.1191929831972729e+07  2.1188496585873812e+07  2.1190036180895548e+07  2.1186443409539286e+07  2.1185726131647643e+07  2.1180692844095808e+07  2.1178223238554280e+07  2.1172266591517869e+07  2.1123011362636175e+07  2.1066923190886151e+07  2.0986229274236377e+07  2.0898255176747248e+07  2.0779926026738942e+07  2.0621967024029035e+07  2.0430495568651807e+07  2.0234503032976523e+07  2.0057047939516738e+07  1.9918800646769505e+07  1.9763344106141839e+07  1.9721268484639034e+07  1.9742036394019794e+07  1.9823762830805827e+07  1.9881402670787353e+07  1.9907623861645311e+07  1.9933247909212530e+07  1.9965096125609081e+07  1.9989860675872043e+07  2.0008438229458321e+07  2.0012705098261844e+07  2.0012747668686479e+07  2.0006195733960710e+07  1.9989059512237761e+07  1.9982984795839235e+07  1.9995219308704924e+07  2.0003337748317890e+07  2.0005950948023140e+07  2.0005956781465944e+07  1.9997503665987313e+07  1.9945269195147544e+07  1.9928226087613799e+07  1.9897773091872435e+07  1.9879130478012856e+07  1.9852867193296611e+07  1.9824658584341548e+07  1.9792627195194334e+07  1.9765704964033742e+07  1.9752536642714474e+07  1.9751732160807993e+07  1.9752346544061087e+07  1.9751926870736878e+07  1.9751988306984901e+07  1.9752197382556722e+07  1.9752170479132123e+07  1.9749895804016564e+07  1.9739934949245557e+07  1.9701099872843035e+07  1.9596178791727733e+07  1.9489754061735485e+07  1.9418772533309389e+07  1.9384462877400517e+07  1.9371178121970423e+07  1.9323518902494878e+07  1.9291375234738685e+07  1.9266417752258670e+07  1.9258998465660293e+07  1.9236161697419871e+07  1.9207244243670579e+07  1.9197533162053477e+07  1.9198393781647097e+07  1.9183249113839801e+07  1.9140151600742687e+07  1.9081984903602034e+07  1.9032753887466501e+07  1.8971959879708841e+07  1.8925617190841474e+07  1.8884664232911132e+07  1.8861000969015934e+07  1.8848755648425590e+07  1.8824872484224349e+07  1.8812968973802399e+07  1.8811801882948369e+07  1.8810511236106519e+07  1.8803188777383924e+07  1.8796442751961891e+07  1.8782980637274582e+07  1.8772604704041950e+07  1.8772708501603864e+07  1.8766116204652488e+07  1.8762377366458070e+07  1.8755981151916459e+07  1.8755010894808318e+07  1.8755961046782549e+07  1.8756261929486986e+07  1.8756921371722728e+07  1.8758799854714397e+07  1.8763465962439008e+07  1.8772914619179148e+07  1.8791659188386645e+07  1.8816065974368151e+07  1.8842064870001573e+07  1.8884478274191059e+07  1.8912692116053432e+07  1.8946098112791277e+07  1.8991507382548556e+07  1.9045526896743976e+07  1.9125281582510002e+07  1.9231367300182607e+07  1.9298863406523082e+07  1.9640570581429664e+07  2.0117557462965108e+07  2.1296318248707358e+07  2.1396961895361215e+07  2.1410495457313467e+07  2.1186429407083396e+07  2.1386604611285191e+07  1.9198342240132838e+07  2.1161006960844845e+07  2.1191089374541093e+07  1.9998830068930842e+07  1.9987303403294478e+07  1.9751671421147898e+07  1.9752152139006194e+07  2.1330343994954191e+07  1.9640560892912313e+07  1.9639924574123826e+07  2.1282292274291363e+07  2.1308886528922468e+07  1.9198344178337213e+07  2.1151131683794409e+07  2.1191091500083085e+07  2.1256757912201554e+07  2.1274731878844209e+07  2.1189396692255843e+07  2.1278561822264235e+07  2.1189375952761509e+07  1.9175574571737118e+07  2.0179903872001089e+07  2.0824969175294112e+07  1.9287469510963354e+07  1.8859941170766387e+07  1.9546105219779197e+07  2.0772966752273597e+07  1.9796384065743111e+07  2.0149088313231066e+07  1.9096410747370016e+07  1.9011784015340406e+07  2.0813728533364106e+07  1.9414953974718358e+07  2.1163673991671056e+07  2.0283758186747454e+07  1.9468749293227796e+07  1.9431683489418697e+07  2.0525956610615697e+07  1.8780687398304392e+07  2.0991758490491349e+07  1.9865278663016073e+07  2.0525615517875426e+07  1.9294555461007420e+07  1.8915116552263729e+07  1.9247035249217208e+07  1.9094701864314098e+07  1.9508041545371395e+07  1.9001920270466536e+07  2.1081809672723662e+07  1.8816778820052825e+07  2.0894747671773173e+07  2.0116013642603006e+07  2.0550490322206605e+07  1.9205481974630628e+07  2.0569759642715890e+07  1.9812648896140970e+07  2.0298695065728370e+07  1.9830610185251698e+07  1.9733917590609811e+07  1.8907081500405345e+07  1.9672686693217911e+07  2.1043150371101003e+07  2.0779570932550155e+07  2.1316776993874643e+07  2.0554310369635031e+07  2.0497286437726729e+07  1.9456852560928166e+07  1.9060812822157770e+07  1.9244989876585931e+07  1.9856452980035704e+07  2.0998680533227395e+07  2.0054744598169956e+07  1.8819958600047071e+07  1.8955979982511252e+07  2.1129150699210793e+07  1.9103555735791735e+07  1.8774738796322975e+07  1.9915897005507953e+07  2.0880379615249243e+07  2.0291398980828453e+07  1.9362497734708641e+07  2.1198128774608281e+07  1.8898057509000778e+07  1.9599033396866232e+07  1.9665310743408501e+07  2.0078856042639170e+07  1.9432118465691861e+07  1.9092596372454900e+07  1.9395525741916783e+07  1.9596917553493440e+07  1.9145206538036060e+07  1.9171089531650569e+07  1.9250993295625005e+07  1.9420896454673968e+07  2.1270489133882254e+07  2.1001729773044117e+07  1.9281223443130117e+07  2.1206851007266652e+07  2.0796700688874122e+07  2.0738367286981869e+07  2.1061420250899930e+07  1.9758546148129132e+07  1.9611267262224626e+07  2.0331026769952621e+07  2.0649876417442605e+07  1.9550929160627637e+07  2.0976963504894003e+07  1.9288636594049729e+07  2.0101898057149798e+07  1.8762671191059947e+07  1.9215157478539441e+07  2.0328245307543740e+07  2.0940929905156698e+07  2.0035616813188344e+07  2.0535103924677480e+07  1.9892732637229219e+07  2.0718817325140499e+07  1.8817195496027064e+07  1.9368403879564367e+07  1.9323330349274721e+07  2.1037757780167371e+07  2.0324401580180857e+07  1.8952784877170775e+07  2.1053040041705690e+07  1.9962657817666426e+07  2.1163983693287015e+07  1.8781990190682359e+07  2.1283228903348230e+07  2.1277920526829571e+07  1.9355628845925555e+07  1.9620607666888051e+07  2.1280807062340450e+07  2.1321113995015264e+07  2.1127055135484409e+07  2.1160996171890195e+07  1.9975308680574667e+07  1.8819962040092174e+07  2.1082337354348458e+07  2.0884911733711608e+07  1.9370164526652880e+07  1.9607616854804408e+07  1.9516966427926660e+07  2.1316395905291639e+07  2.1276789041903172e+07  1.9931447525192734e+07  2.1231568249720048e+07  2.1225871412642758e+07  2.1252327958882283e+07  2.1324521712509725e+07  1.9656433337460075e+07  1.9201189333593186e+07  1.9980519937609475e+07  1.8791557480318267e+07  1.9570579753690302e+07  1.8901269595510002e+07  1.9943307866531957e+07  2.1389285171041653e+07  1.9871753227178037e+07  1.9987367659098074e+07  2.1135852484236639e+07  1.9701399543474257e+07  1.8764821711338151e+07  1.9981974661146782e+07  1.8938640575675067e+07  1.9268599942394212e+07  2.1158073415736917e+07  2.1113940647494934e+07  1.9750056227304079e+07  2.1388279406130083e+07  1.9076367438868996e+07  2.1193979277760714e+07  2.0253147840791211e+07  1.8760097641553242e+07  1.8828789318120506e+07  1.8865368542547643e+07  2.0637756220340107e+07  2.1128624993010215e+07  2.1089720253401965e+07  2.0470424839848798e+07  2.1303270076819502e+07  2.0054230234835796e+07  1.9199621966649365e+07  1.9199306750119254e+07  1.8775816439277805e+07  2.1280472341480441e+07  2.1289481320119645e+07  2.1293094788570501e+07  2.0868175105547097e+07  2.1087776834998723e+07  2.1288014469486509e+07  2.1221059146013245e+07  1.9899664635409057e+07  2.1409008178708978e+07  2.1407477990521021e+07  1.9694051313471507e+07  1.8829255344890159e+07  1.9748667883290175e+07  2.1149504680924587e+07  1.9818106909057714e+07  1.9815108323777791e+07  2.1393320042546570e+07  1.9760897690060038e+07  2.0706955397967454e+07  1.9150215048687942e+07  1.9375065996197011e+07  1.9346149554154687e+07  1.9405844961770471e+07  2.1177661869287550e+07  1.9602933654132161e+07  1.9623737965013668e+07  1.9578740488477610e+07  1.9621101132560495e+07  1.9524766088309884e+07  1.8757626256957833e+07  1.8760680824585013e+07  1.9663114200642709e+07  1.9331293683365937e+07  2.0011397032496348e+07  2.0010985244200356e+07  2.1403049569335178e+07  2.0307217793810472e+07  2.0094860059945732e+07  1.9732690273309715e+07  1.9688355088570688e+07  1.9702163527751330e+07  1.9727401417813543e+07  1.9698647124609884e+07  1.9712949312605571e+07  1.9784198393059004e+07  1.9723516974563699e+07  1.9751934730228085e+07  1.9825971260479409e+07  1.9789815687320583e+07  1.9546931154814996e+07  1.9636182641742684e+07  1.9110385698114436e+07  1.9147739313571781e+07  1.9105430102700196e+07  1.9058878230374001e+07  1.9075503853460122e+07  1.9003867926035680e+07  1.9051628916353930e+07  1.9026162884755377e+07  1.8913192138036668e+07  1.8875326839566343e+07  1.8807784899631824e+07  1.8828379921369791e+07  1.8822085802691404e+07  1.8860453732619423e+07  1.8835679713986136e+07  1.8898499229211643e+07  1.8893280336578954e+07  1.8853482599219523e+07  1.8930689662606306e+07  1.8905527450328786e+07  1.8946594105653629e+07  1.8921984577145208e+07  1.8974879943804484e+07  1.9060231235529948e+07  1.9003617930567861e+07  1.9185630450126268e+07  1.9088235204392407e+07  1.9129724066977173e+07  1.9229458529258121e+07  2.0355781401455462e+07  2.0237952329526544e+07  2.0129207979250278e+07  2.0249196769157611e+07  2.0694047519683525e+07  2.0919852009976119e+07  2.0779975785441115e+07  2.0900277087002520e+07  1.9369013408326153e+07  1.9215979639771830e+07  1.9248766076618351e+07  1.9329434023278628e+07  1.8880665048976894e+07  1.8921282530016396e+07  1.8830389689829320e+07  1.8901487793494079e+07  1.8872865519006278e+07  1.8836512616777088e+07  1.9642091838291224e+07  1.9693431985226344e+07  1.9450131428641379e+07  1.9562230495977201e+07  1.9477876145629466e+07  2.0836474610101573e+07  2.0667538880198143e+07  1.9792907971542284e+07  1.9731763186509781e+07  1.9925336850891806e+07  1.9671811554639779e+07  1.9912621521963224e+07  1.9841714140265703e+07  2.0009844927674647e+07  2.0217146092104770e+07  2.0119133401269443e+07  1.8998266996996764e+07  1.9078289360567860e+07  1.9167397253806375e+07  1.9021174612934772e+07  1.9049141228004947e+07  1.8996683444705833e+07  1.9103249378521815e+07  1.8952556862545677e+07  1.8949854405744158e+07  1.9048824027233202e+07  1.9075671593067728e+07  2.0661243119546991e+07  2.0928925110267773e+07  2.0767048770772491e+07  2.0958093346398331e+07  2.1109468159292147e+07  2.0436693180506598e+07  2.0156989381614864e+07  2.0409260212111268e+07  2.0300008939446378e+07  1.9404615604072835e+07  1.9527784922183409e+07  1.9501218802235834e+07  1.9366339672581043e+07  2.0653270585970294e+07  2.0530937414065022e+07  2.0509819905025259e+07  2.0423981494378339e+07  1.8793722083012920e+07  1.8795279550845742e+07  1.9834946745821331e+07  1.9851493113844655e+07  1.9728924422396399e+07  2.0536061769577235e+07  2.0407501124634583e+07  2.0633540205210529e+07  2.0425663705211528e+07  1.9360742682382409e+07  1.9231533409537122e+07  1.9256899333506797e+07  1.9328710504244279e+07  1.9241418835716475e+07  1.9279372118783865e+07  1.8981396851019248e+07  1.8861178969925579e+07  1.8932559828266378e+07  1.8856379110692818e+07  1.8932620636201940e+07  1.8907047227242719e+07  1.9168903829123754e+07  1.9294750351036910e+07  1.9328978513839986e+07  1.9246914196793277e+07  1.8995261076999571e+07  1.9117188581491366e+07  1.9132623980445545e+07  1.9154517041265991e+07  1.9012256982452314e+07  1.9082371745865952e+07  1.9484013526208293e+07  1.9588147236637816e+07  1.9470083340708874e+07  1.9437041789504785e+07  1.8974228184070181e+07  1.9050837920056120e+07  1.8942465137511358e+07  1.9042661240600027e+07  1.8853374954680733e+07  1.8793102091946721e+07  1.8849863778879590e+07  1.8810276205589004e+07  1.8817698495429054e+07  1.8803191537823919e+07  1.8836768943331171e+07  2.0070209487657331e+07  2.0002552575771008e+07  2.0217635559191387e+07  2.0210660117121421e+07  2.0541038035811413e+07  1.9145332676845565e+07  1.9172811383110881e+07  2.0449586154492773e+07  1.9942015770131182e+07  1.9700790795531370e+07  1.9663669344118245e+07  1.9886389204339985e+07  2.0421919089301717e+07  2.0311381885074560e+07  1.9793936307382848e+07  1.9798490887898766e+07  1.9792655470563184e+07  1.9573880671402425e+07  1.8898573059140343e+07  1.8921202380413651e+07  1.8885018012079760e+07  1.9616940330273494e+07  1.9776639710219875e+07  2.0891887817481294e+07  2.1007082014855094e+07  2.0669898440597776e+07  2.0894320850187395e+07  2.0711226264710996e+07  2.0649296089393165e+07  2.0430308712275840e+07  2.0413692508375306e+07  1.9410531411403410e+07  1.9003410872500345e+07  1.9713072456237134e+07  1.9900807347575542e+07  1.8817195743808381e+07  1.8854503433426913e+07  1.8824220173477337e+07  1.9030532670733493e+07  1.9165807158268198e+07  1.9472677760762986e+07  1.9379299339542747e+07  1.9313758206349272e+07  1.9524013020479858e+07  1.9655787501886591e+07  1.9683171341968942e+07  1.9675591916213430e+07  1.9715637591042444e+07  2.0054284741672721e+07  2.0011184376931563e+07  1.9402038048345551e+07  1.9183787829830021e+07  1.9180620721879628e+07  1.9230438364515249e+07  1.9189831132192001e+07  1.9123625546706643e+07  1.9331827044894814e+07  1.9401809842943527e+07  1.9280544988557827e+07  2.0859624286590196e+07  1.9401733089811388e+07  1.9289829844643768e+07  1.9959609371259257e+07  2.0172817493572526e+07  2.0432281251924951e+07  2.0314646747653421e+07  1.8925946967019010e+07  1.8801696261435546e+07  1.8840595303637139e+07  1.9678463646719150e+07  1.8861417055693019e+07  1.9730651201235577e+07  1.9007185854752153e+07  1.8899084014597103e+07  1.9726033496045206e+07  1.9202168301503856e+07  2.0302945702312157e+07  1.8868412609675363e+07  1.8887470473786134e+07  1.8842329163767919e+07  1.8865113200798925e+07  1.8831211054219518e+07  1.9875545808150258e+07  1.9028716457233790e+07  1.9055980930192232e+07  1.9042823031669125e+07  2.0847561086518038e+07  1.9639715070304066e+07  1.9433544012913860e+07  1.9414763936350238e+07  1.9428175355735887e+07  1.8793722240139596e+07  2.0441339574551940e+07  2.0474324662934214e+07  1.8953891239835840e+07  1.8946283986346696e+07  1.9210123684145588e+07  1.9241938326679107e+07  1.9044056060403027e+07  1.9459979369231105e+07  1.9798173461463012e+07  1.9875995890488282e+07  1.9733122815411597e+07  1.9911274210635614e+07  1.8949027468333650e+07  1.8877837434653513e+07  1.8913710274876218e+07  1.8895709973211605e+07  2.0490511147173002e+07  1.8927294565237459e+07  1.8964080581904784e+07  1.8992660483027726e+07  1.9405167328706831e+07  1.9381415748868451e+07  1.9415331976766318e+07  1.9367434325975154e+07  1.8922594597288553e+07  1.8871351896090705e+07  1.8897130789540943e+07  1.9398178630368050e+07  2.0697213009396739e+07  2.0750054787007365e+07  2.0813277930118807e+07  1.9757872068308592e+07  2.0377128130115602e+07  1.9338994620171275e+07  1.9231313196804341e+07  1.9198124072084330e+07  1.9252109054690506e+07  2.0102416788175143e+07  1.9866694384764139e+07  1.9926599141175915e+07  1.8844771164082538e+07  1.8826501762634736e+07  1.8811980519335728e+07  1.9347908768876754e+07  1.9402393234456938e+07  1.9388999262321930e+07  1.9328609966495439e+07  2.0247214038513768e+07  1.8876304446712758e+07  1.8876217224031415e+07  1.8880437120137874e+07  1.9726712958644081e+07  1.9707356436667733e+07  1.9715614557105970e+07  1.9043608812175505e+07  1.9078451707609270e+07  1.9099897197477147e+07  1.8858545417777475e+07  1.8840751982925396e+07  1.8841365301814720e+07  1.9756042154734824e+07  1.9793856833299823e+07  1.9774813797326341e+07  1.9738893872142877e+07  1.9745899654140882e+07  1.9743256293158025e+07  1.9741306016898308e+07  1.9112656674567323e+07  1.8857465889116354e+07  1.9214667111466955e+07  2.0389540654861145e+07  1.9288600186496649e+07  1.9269671390449088e+07  1.8855991656199727e+07  1.8894535585271548e+07  1.8915250727046762e+07  1.8935818929277226e+07  1.8904583730175078e+07  1.8858759406915188e+07  1.9460096298840381e+07  1.9412417793570783e+07  1.9427266654530242e+07  1.9863325474951163e+07  1.9899465035633631e+07  1.8989235976671766e+07  1.9028054333215643e+07  1.8998780093896050e+07  1.9020554400962368e+07  1.9088606482250400e+07  1.8972309556008615e+07  1.8943324314389221e+07  1.8922156604024176e+07  1.9122849668540467e+07  2.0827966172412612e+07  1.9437452030365910e+07  1.9498287729648151e+07  1.9380356232596148e+07  2.0473497333812576e+07  2.0479386117305417e+07  2.0423774439489543e+07  1.9292283260183387e+07  1.9364871139370680e+07  1.9309707670019727e+07  1.9102699520592216e+07  1.9424276008723982e+07  1.9419284010768406e+07  1.8874108523736086e+07  1.8867857597592961e+07  2.0141892557413846e+07  2.0120500939793959e+07  2.0193684502214227e+07  1.8902375239854619e+07  1.8857867743833322e+07  </DataArray> 
</PointData> 
</Piece>
</UnstructuredGrid>
</VTKFile>