<?xml version="1.0"?>
<VTKFile type="UnstructuredGrid"  version="0.1"  >
<UnstructuredGrid>
<Piece  NumberOfPoints="784" NumberOfCells="1320">
<Points>
<DataArray  type="Float64"  NumberOfComponents="3"  format="ascii">266913.131276 586512.314988 0  266738.13716 587762.325998 0  266363.132677 589012.328643 0  266175.641078 590169.601714 0  265666.575631 591040.7699119999 0  264875.64001 591687.766419 0  264900.636161 591845.049083 0  266088.14152 592012.3229499999 0  265561.959259 592661.17101 0  264288.136855 593037.368683 0  263865.194033 593999.8486949999 0  263850.641856 593236.729596 0  263625.634872 592756.525286 0  262689.574249 593299.848918 0  262475.636737 594003.0907310001 0  261934.554452 594340.929792 0  261725.631329 594932.094409 0  261729.256443 595728.498809 0  262138.136044 595012.330523 0  262288.141035 596262.333669 0  261488.994028 597511.480605 0  261234.15567 598316.338928 0  260815.635063 599014.863821 0  261400.643658 599389.7367680001 0  261322.963374 600022.185065 0  261119.455248 600931.061306 0  261607.436504 601293.0629359999 0  260807.446929 602089.899812 0  260025.642878 602988.868697 0  259613.135827 603937.3854499999 0  259050.643123 604100.987861 0  258411.880065 603988.6335979999 0  257764.357469 604449.872569 0  257971.239668 605320.429125 0  258041.396867 605740.635381 0  257188.143339 606987.394312 0  256038.141198 608112.3554550001 0  254788.141633 609087.4026939999 0  253588.140656 609812.362881 0  252338.135706 609737.4048949999 0  251088.138116 609787.404055 0  249963.12851 610287.399466 0  248613.130524 610462.365857 0  247363.132198 610687.407659 0  246113.130532 610837.411551 0  245832.347438 610918.209918 0  245016.946433 610958.5639439999 0  244313.129646 610762.372259 0  244400.622144 611378.093316 0  243939.669208 612460.8930899999 0  242960.649733 611984.892792 0  242170.381438 611919.647351 0  241888.122919 611112.375656 0  241393.380757 610467.6456149999 0  240594.157528 611306.369822 0  240525.621947 610804.648112 0  240363.123632 610512.3745050001 0  239113.123247 610262.374278 0  239813.12126 609037.412459 0  240588.122952 607812.368199 0  241013.119545 606625.9534560001 0  241454.373249 605724.888025 0  242238.120107 604687.3993 0  243088.121248 603462.362766 0  242860.319451 603007.3932640001 0  241563.116617 603812.361344 0  241778.400913 604327.642217 0  242059.837234 604824.879102 0  241475.620201 604923.2402390001 0  241462.182234 605449.881372 0  240906.219606 605674.888222 0  240241.856192 606891.125066 0  239891.734044 607841.012479 0  239048.653431 608724.889805 0  238118.054545 608974.895967 0  238888.111029 607337.406468 0  239738.119992 606212.362729 0  240288.12044 605687.4075229999 0  240380.212307 604729.521696 0  239347.309632 604603.204501 0  238888.112036 604387.408787 0  237913.11173 604687.401386 0  236784.172023 604499.882783 0  236883.408793 603717.08334 0  236154.933927 603595.565605 0  235688.103943 602912.369264 0  235763.108033 601662.366516 0  236363.110805 600412.35884 0  236738.107995 599162.356577 0  236525.607944 598482.2412899999 0  236138.109208 599362.357613 0  235725.063048 600325.4466510001 0  235091.948926 601408.5220979999 0  235188.10921 600312.366344 0  234375.602405 600833.9674270001 0  234663.109308 599912.358011 0  234138.105122 600062.365644 0  233955.307245 599029.561063 0  233338.103791 598387.401556 0  233988.09795 597862.356384 0  235138.101489 596637.3947750001 0  235563.1039 595387.392428 0  236513.103639 594212.356312 0  237163.10684 592987.3929869999 0  238313.103031 591862.3515540001 0  239513.107028 590812.3512640001 0  240638.102135 589787.387271 0  241463.109549 588587.378486 0  242294.489816 587443.735215 0  242913.101099 586512.341804 0  243544.066915 585474.859604 0  243040.448415 585184.975583 0  242438.10214 585337.38015 0  241313.102353 586562.339499 0  240538.107104 587787.382449 0  240114.641085 588588.939407 0  239388.100256 589437.382238 0  238188.104456 590512.346358 0  236938.100507 591362.349798 0  235813.10453 592537.396388 0  234864.502938 593178.7753880001 0  234463.097651 592862.357267 0  235113.0965 591662.3545979999 0  235713.101522 590412.346099 0  235777.688431 589976.7582779999 0  234943.583145 590706.265132 0  234462.482256 591490.2841159999 0  233801.497784 592112.940187 0  233388.099101 591787.394208 0  234013.093099 590437.393065 0  234776.217248 587148.7548100001 0  235163.093726 586562.3486189999 0  235313.098918 585483.229012 0  235250.59732 584662.298153 0  235588.093896 583337.379493 0  236329.432041 582199.858992 0  237188.096234 581462.3349939999 0  237463.088521 580212.335511 0  238350.592558 579057.652616 0  238591.415797 578574.847681 0  238313.094106 577612.328905 0  239229.696732 577695.769664 0  240195.161018 577513.008613 0  240614.996733 577149.8518770001 0  240663.091715 577412.332622 0  240288.092486 578662.334085 0  239942.357258 579508.095811 0  240438.100019 580212.3334220001 0  241338.095553 580387.375355 0  241238.099828 579137.369157 0  241788.097003 577887.370889 0  241983.554649 577241.9220939999 0  242054.178239 576927.8105029999 0  242588.100699 575737.366175 0  243149.324833 574898.583978 0  243695.278626 573919.517981 0  244268.494418 573724.8454239999 0  244995.134063 573930.2767810001 0  245417.314363 573391.601898 0  243450.599125 571859.479773 0  245776.797908 572599.8353060001 0  246779.639852 572973.285167 0  248034.741935 573186.082054 0  249413.10651 573162.3205520001 0  250496.922226 573271.1521899999 0  251613.105126 573237.3551319999 0  252421.824577 572846.032906 0  253256.245022 572580.4733130001 0  253739.471933 571960.9547369999 0  254174.511864 572149.8346569999 0  254484.944333 571684.194807 0  254384.108649 570891.346712 0  254344.002752 570218.26407 0  255025.609604 570829.0294979999 0  255715.005913 570489.264586 0  256218.846343 570774.828355 0  256834.349083 570508.5908 0  257390.092515 570014.308325 0  257624.431042 568493.478911 0  259355.811717 569380.021819 0  260033.372814 569617.066669 0  262679.741751 570320.699974 0  263289.115756 569524.817815 0  263463.114338 570512.301061 0  264638.198419 570687.3443539999 0  265058.220065 571334.378467 0  265447.561421 572077.90485 0  265488.125257 573137.3446020001 0  265131.937715 573963.293593 0  265432.389648 575093.068786 0  265638.122314 576338.029955 0  265750.630817 577371.8281319999 0  265738.570663 578561.9098850001 0  265875.630866 579139.630549 0  266213.129247 579862.311842 0  266563.130472 581112.314509 0  266238.135356 582362.310259 0  265938.12863 583612.320897 0  265738.131342 584762.3210189999 0  266875.638633 585365.358768 0  264018.7239399826 593650.4646671159 0  262236.3944351029 595831.1252656333 0  241846.246678 605206.1436625 0  240200.622106 608424.8903290001 0  240943.4862974102 610939.7757535663 0  236550.6094 599787.3577085 0  238528.1212051503 608102.9081793013 0  244413.4891967989 572609.5960859474 0  236382.0474488751 598808.3067022427 0  235369.601910944 600933.5380148316 0  235413.099011 591037.3503485 0  235446.2251831186 590266.6553871984 0  240475.5921005 578037.3333535 0  240413.173949154 577324.4280286073 0  240574.037899 606283.0066440001 0  263857.9179445 593618.2891454998 0  264153.4303974913 593343.916675058 0  242042.1833925 604946.7714812499 0  241650.3099635 605465.51584375 0  244613.6985165 572229.6575395 0  236631.8579695 598822.2989335 0  235140.029068 600860.444221 0  241767.7287175 604874.0596705 0  242140.15174975 604817.0853906251 0  234781.8558075 600573.1668855001 0  242091.167571125 604881.9284359375 0  234519.3558565 600373.162719 0  254604.8337712102 583989.0014118921 0  250699.5846056537 594617.3297041012 0  250540.4796469513 602258.2940568649 0  248483.7490186612 580334.7345534252 0  258549.2190328319 577893.951823392 0  257067.0067473103 590016.5327808241 0  243285.0921999099 596333.923437875 0  248333.1386145258 589098.0389905117 0  256142.8445072741 595883.3911551933 0  260245.1368072523 583315.2785712298 0  253472.3380211276 578932.2908163272 0  246432.3347504817 599884.5019511909 0  261555.9240922556 588041.186709004 0  247293.1100123104 605823.8307887657 0  246458.2798550911 593168.8646574575 0  252840.0183145193 588226.5564648228 0  249828.2874404451 584740.7888937403 0  255409.5660975206 600458.8956828594 0  260819.9733392385 574219.403683011 0  252584.2262054711 605722.6603825617 0  254049.8830611471 592547.4852571967 0  250015.4356193061 598425.2225922942 0  245872.072249477 577604.9761853142 0  262002.1583249522 579753.4663046852 0  257732.6630933878 586227.970805314 0  250242.5556457866 577017.3316409125 0  244921.6453001869 581816.6358421432 0  256520.3890639471 580904.824006648 0  240779.0970645865 599524.6679555867 0  257100.1829219198 574459.5922545703 0  239912.2630002034 595231.1172704464 0  244703.0875078634 590068.6945953515 0  242549.5490268674 592874.3693043783 0  251586.0465921376 581796.2215047925 0  246643.189997516 596527.447801719 0  251049.7658069622 591057.6752245198 0  253014.5731561695 596998.6601086652 0  238680.2197353724 584542.2309791476 0  259715.365803504 591937.1938619445 0  254097.157218761 575731.4494927844 0  246806.6408589328 586139.0877599345 0  246136.1179750556 602959.471719323 0  253520.7033332401 602835.180253843 0  244125.4295793909 607538.9817227355 0  252546.8895354472 599881.3279113505 0  258289.0983523553 600397.640191779 0  247518.7952199645 583037.3718217331 0  263140.3959879661 582529.2228421422 0  262894.8586894067 585442.3590432997 0  256968.6320599076 593040.7691844478 0  243573.0187527719 600218.2795730785 0  258888.5766127351 595139.7745218446 0  262588.7569809347 576734.8569237856 0  259318.4257992262 580601.2540325444 0  249963.3812725965 607065.7205847671 0  257494.5307999607 583482.5893534871 0  258906.4757205145 572278.8089438241 0  237751.446593475 587300.5805003279 0  255142.4708720699 604956.7580261135 0  258485.4978753244 597756.9250383095 0  255516.7820591553 587791.39641967 0  239758.4692108706 601926.8203218657 0  255873.0092222999 577739.5085867504
[...]
<PointData  Scalars="f_32-0"> 
<DataArray  type="Float64"  Name="f_32-0"  format="ascii">5.1888178628469622e+06  5.3037780641536135e+06  5.4354818459515879e+06  5.5408573061072668e+06  5.6118212366046710e+06  5.7156046490194695e+06  5.7499572846673867e+06  5.7764717437435035e+06  5.7766435936390627e+06  5.7998539764014594e+06  5.8106410948033286e+06  5.8087692368105715e+06  5.8304217226248132e+06  6.0183088962959917e+06  6.1520529459757367e+06  6.2791404815368112e+06  6.4599550839645844e+06  6.6683930981904538e+06  6.6951752300660405e+06  6.7260209938906068e+06  6.8885571407949375e+06  7.0173959753540633e+06  7.1644441922260290e+06  7.2446821455851989e+06  7.2827413084403900e+06  7.3646243878307855e+06  7.3885297289039427e+06  7.4297040805452997e+06  7.5130661946186451e+06  7.5710165480162203e+06  7.5888949069765881e+06  7.6391353733072290e+06  7.7645375579144293e+06  7.8645809693910973e+06  7.8824454920962369e+06  7.9590032509010835e+06  8.0412205844792426e+06  8.1120055975721637e+06  8.1574289207863724e+06  8.1968444656208213e+06  8.2529959065864151e+06  8.3053967340357099e+06  8.3533761494076569e+06  8.3969525776877049e+06  8.4359098648818936e+06  8.4439846222240645e+06  8.4642612331387196e+06  8.4884964607680775e+06  8.5055047603691258e+06  8.5128831578824762e+06  8.5147358520020433e+06  8.5164660598632693e+06  8.5166621984014120e+06  8.5202769463433232e+06  8.5266070559194256e+06  8.5261715464848205e+06  8.5263133004678227e+06  8.5286809828279521e+06  8.5225191112099737e+06  8.5001322018165197e+06  8.4705850216305703e+06  8.4430098211718947e+06  8.3935102599165812e+06  8.3030455427717641e+06  8.2748390351871466e+06  8.3303627460307758e+06  8.3532959525594842e+06  8.3596564917935627e+06  8.3662846777840890e+06  8.3769504440854769e+06  8.3923537910809666e+06  8.4486411200639252e+06  8.4667971318297777e+06  8.4752601721738409e+06  8.4769546236562245e+06  8.4678063481766395e+06  8.4403325671730861e+06  8.4079406117590498e+06  8.3622400611260189e+06  8.3487533899604641e+06  8.3485745959561970e+06  8.3506566184201147e+06  8.3510638912163870e+06  8.3480205421860311e+06  8.3457694615831105e+06  8.3430055079757879e+06  8.3322703665295625e+06  8.3039216301075667e+06  8.2571217942857062e+06  8.2371166811000984e+06  8.2571743320958810e+06  8.2677177733755019e+06  8.2712672632496702e+06  8.2683421852403656e+06  8.2695900259475242e+06  8.2664921199436113e+06  8.2658037039368544e+06  8.2613285868568616e+06  8.2590818706574077e+06  8.2538469691164698e+06  8.2092741310861669e+06  8.1560983268733807e+06  8.0772333296957891e+06  7.9889025028398717e+06  7.8659281866647545e+06  7.6930983207524288e+06  7.4654458062875541e+06  7.2058955512665259e+06  6.9318739216706678e+06  6.6816051009308323e+06  6.3441700900852885e+06  6.2253166983407093e+06  6.2563885382670397e+06  6.4346604641607730e+06  6.5640687520819549e+06  6.6203408892876068e+06  6.6729737209583865e+06  6.7347243715311047e+06  6.7794065271342648e+06  6.8106137404058212e+06  6.8174329195205504e+06  6.8174986421429263e+06  6.8069713893293645e+06  6.7782769469785057e+06  6.7679646517909728e+06  6.7893218215268021e+06  6.8029118046024963e+06  6.8071936683198214e+06  6.8071934995005922e+06  6.7931935362504944e+06  6.7007220899837017e+06  6.6691971939523024e+06  6.6125644010963794e+06  6.5775530434322767e+06  6.5272680156910336e+06  6.4717841813069172e+06  6.4082030653277831e+06  6.3582649336072672e+06  6.3390503616639106e+06  6.3427853027217370e+06  6.3479244574443474e+06  6.3472631691234689e+06  6.3494709512200803e+06  6.3506698526144261e+06  6.3505217985624727e+06  6.3408285981556550e+06  6.3065320361092789e+06  6.1974806123689087e+06  5.9212035248083211e+06  5.6414551170858871e+06  5.4490820634380085e+06  5.3564670812589275e+06  5.3211004403558942e+06  5.1943615659425873e+06  5.1081595425148942e+06  5.0403971948964708e+06  5.0167621945067402e+06  4.9400328705348093e+06  4.8613125636298796e+06  4.8843139024421824e+06  4.8434093202595180e+06  4.7524853074637400e+06  4.5458114780150810e+06  4.2897133949272372e+06  4.0967129541895925e+06  3.9109407298847330e+06  3.8206674695936292e+06  3.7879418506927765e+06  3.7968753550086562e+06  3.8094420067780279e+06  3.8567618340927190e+06  3.8931853377240747e+06  3.8982480583517118e+06  3.8971167443693248e+06  3.9149343202828947e+06  3.9339221094746348e+06  3.9852571792867864e+06  4.0483226934307353e+06  4.0927214336317675e+06  4.0887975090694092e+06  4.0930610517343138e+06  4.1367247029018388e+06  4.1482450700558410e+06  4.1449550407677772e+06  4.1494239577597734e+06  4.1458382762472448e+06  4.1363105168256080e+06  4.1149624480888247e+06  4.0795201441560788e+06  4.0354813910481976e+06  4.0119618142012875e+06  4.0114399510030993e+06  4.0464232943603289e+06  4.0922111482823133e+06  4.1646849493473512e+06  4.2762535466200272e+06  4.4111141999866841e+06  4.6263319833131926e+06  4.9200786010364629e+06  5.1044379400479626e+06  5.8100421437661732e+06  6.7040922408500109e+06  8.4214003467859682e+06  8.5138060954398811e+06  8.5258571258248109e+06  8.2824599477461772e+06  8.4745443183559626e+06  4.8755169230566742e+06  8.2460840402511396e+06  8.2705566127883177e+06  6.7947989232657058e+06  6.7757149929439323e+06  6.3481010378501043e+06  6.3504187610205458e+06  8.4253074613399804e+06  5.8100282227039831e+06  5.8082979844039688e+06  8.4082382201447617e+06  8.4331305735055711e+06  4.8755222424939973e+06  8.2435975527299726e+06  8.2705586695496365e+06  8.3606564943226743e+06  8.4011121717592701e+06  8.2690520660458691e+06  8.4047248575724550e+06  8.2690334340069024e+06  4.4480028347694175e+06  7.0460413057814222e+06  7.9120297802181244e+06  4.8164641892052395e+06  3.3417632635613522e+06  5.2647156109755738e+06  7.8844103346243324e+06  6.4549910718365200e+06  6.7853834307291377e+06  4.2833079833157910e+06  3.6735663759149653e+06  7.9560307443494368e+06  5.2283948358738245e+06  8.2870831307283407e+06  7.3109417193193538e+06  5.3209462057534149e+06  5.4698626174485274e+06  7.3957686865188424e+06  3.8634355912007233e+06  8.0664383762075827e+06  6.2517783911869256e+06  7.5677233933890704e+06  4.9267651190664684e+06  3.7068767131449990e+06  4.4794525606467267e+06  4.0755404297322123e+06  5.6444723654489676e+06  3.9027328207486128e+06  8.1934256506580068e+06  3.6444662000732222e+06  7.9932894250016892e+06  7.0776248484448865e+06  7.6299682950073434e+06  4.6546183835034287e+06  7.6616838462933786e+06  6.3751677287722509e+06  7.1402329472074322e+06  6.4660309364754763e+06  5.8827248623913247e+06  3.4866355179251628e+06  6.1710431482052440e+06  8.1826939375914009e+06  7.7953877966443123e+06  8.4383402301865313e+06  7.5157700764776440e+06  7.3472502277771076e+06  5.5297069457215266e+06  4.2746906569477897e+06  4.8747037705442170e+06  6.1302702413565554e+06  8.1285857758738250e+06  6.5746706165125668e+06  3.8242891677072868e+06  3.7404403302557641e+06  8.2348507730184160e+06  4.2231596131066876e+06  3.9544342420668625e+06  6.6411466283793375e+06  7.9109242482821019e+06  7.0144950780574596e+06  4.6985101532988595e+06  8.3033033544100001e+06  3.3764488292760262e+06  5.6703317871902464e+06  6.0793840096493270e+06  6.9547126424209038e+06  5.4202514920533048e+06  4.2205477414272325e+06  5.2919153503227187e+06  5.4959768646670654e+06  4.2670149780087154e+06  4.5389686614821246e+06  4.7508355653920248e+06  5.0357618213036293e+06  8.3890195915542506e+06  8.1012659178360319e+06  4.9254271588104852e+06  8.3361586498928908e+06  7.9220158729033712e+06  7.8607279801988378e+06  8.1614914620711273e+06  6.3192730007184707e+06  5.9823131682960009e+06  7.1062106792091224e+06  7.5808961882504672e+06  5.7752341437379289e+06  8.1034269021901293e+06  4.7155239107438326e+06  6.8068723218957847e+06  4.0724739941635802e+06  4.5145459777762173e+06  7.3319193321941961e+06  8.0504405518291453e+06  6.9486826481718346e+06  7.6229984771081284e+06  6.6635118681619549e+06  7.8043188262181729e+06  3.5658443711183635e+06  5.0961949189146888e+06  5.0828870250295140e+06  8.1306262533213710e+06  7.3766928947869968e+06  4.0465901737920907e+06  8.1327735625488153e+06  6.5994949197520139e+06  8.2648708272260046e+06  3.9859972949513867e+06  8.4086302999227941e+06  8.4040494857810009e+06  5.2342814756643753e+06  5.7664142652648855e+06  8.4068218110413682e+06  8.4387662841397300e+06  8.2237622877929714e+06  8.2444467229011506e+06  6.7548044970069630e+06  3.7885828201654670e+06  8.2178064739112686e+06  7.9108149402498109e+06  5.3077990223535998e+06  5.7455196635623751e+06  5.5519605990833305e+06  8.4399744624869898e+06  8.4030491098130737e+06  6.3331274672669834e+06  8.3350383277195357e+06  8.3544213433556240e+06  8.3798732383891884e+06  8.4413197032571435e+06  6.0779245037652617e+06  4.7695864871524200e+06  6.7631083509681812e+06  3.9116909790868391e+06  5.6656166702753492e+06  4.0123067718505878e+06  6.6962403554064501e+06  8.5064629674416985e+06  6.5596868750701705e+06  6.7759086030554986e+06  8.2292569517774107e+06  6.1643573944518743e+06  4.0550212908959631e+06  6.7664816059203781e+06  3.7190703675827053e+06  5.0346501282722326e+06  8.2428353694143360e+06  8.2025743821256645e+06  6.3185726748806052e+06  8.5046939248208459e+06  4.1724943594766310e+06  8.2916239319739128e+06  6.9451553654287709e+06  4.1212582322135619e+06  3.8183840199245801e+06  3.6543554687154819e+06  7.5598079469374856e+06  8.2595349828078626e+06  8.2168177685951656e+06  7.3046161202889709e+06  8.4278573218519222e+06  6.5800768625847213e+06  4.8642610783994962e+06  4.8642672046373859e+06  4.0022341229827940e+06  8.4065234432530403e+06  8.4149940153541118e+06  8.4183701299960800e+06  7.8875624567430010e+06  8.1824239658992598e+06  8.4044557969253082e+06  8.3341636024165722e+06  6.6047435978246564e+06  8.5244938237672299e+06  8.5232494020345509e+06  6.1657891338659944e+06  3.9583010660334160e+06  6.3314419145343192e+06  8.2825661690569883e+06  6.1241474931592904e+06  6.4466497464458551e+06  8.5088216199183185e+06  6.3004425544982031e+06  7.6627289308339935e+06  4.6540421089175195e+06  5.3289810460102456e+06  5.2544674290325437e+06  5.4070560484094350e+06  8.2591148209789293e+06  5.7379946137298215e+06  5.7809755534141287e+06  5.6881667783589568e+06  5.7742856449636361e+06  5.5839810548609830e+06  4.1223203649327685e+06  4.0654493605033783e+06  5.8270468665828090e+06  5.2051645139702838e+06  6.8153597378507424e+06  6.8147009290523501e+06  8.5190297832612842e+06  7.3216451069911895e+06  7.0111582160901371e+06  6.2993089694231059e+06  6.1730069609289626e+06  6.1934743666577470e+06  6.2296766509757843e+06  6.1787673489756510e+06  6.1964727437382760e+06  6.3454385593612017e+06  6.2161687863032650e+06  6.2736758175313519e+06  6.4432368398525510e+06  6.3586496698680781e+06  5.7714834174415525e+06  6.0160313166295076e+06  4.4115296223828886e+06  4.5373820132606840e+06  4.3653565932535408e+06  4.1956044395450754e+06  4.2373477318012072e+06  3.9994930811200384e+06  4.1375237023323649e+06  4.0422849195564296e+06  3.7706537456605784e+06  3.7434513495107810e+06  4.0052323058281122e+06  4.0092122132556736e+06  3.9978904353978331e+06  4.0213076208605617e+06  3.9966553198568639e+06  4.0670838651659698e+06  4.0429479208964016e+06  4.0001686333823698e+06  4.1294963074612739e+06  4.0631505693547442e+06  4.1326214834523611e+06  4.0976682547324365e+06  4.2049990007519638e+06  4.3999037310019340e+06  4.2675119105252028e+06  4.3124849029839775e+06  4.2108477018661005e+06  4.2706229677198147e+06  4.5665683408831796e+06  7.3230786117781950e+06  7.0936018301689494e+06  7.0001075964226685e+06  7.1917293014713200e+06  7.7327935625914587e+06  8.0148653943565302e+06  7.8854203618009314e+06  8.0127357168471422e+06  5.1861570701639373e+06  4.5586992613878483e+06  4.6189834616491282e+06  4.9387542500443719e+06  3.5151224281022861e+06  3.5336752375520943e+06  3.4213761385542876e+06  3.5022917520248843e+06  3.3223530080734072e+06  3.4140105482360502e+06  5.5942522002920564e+06  5.7020547225215239e+06  4.9469150282727769e+06  5.3189071181190275e+06  5.1060654514773376e+06  7.9419176470957873e+06  7.7653052011675518e+06  6.4104299730788516e+06  6.3177122244242514e+06  6.7109377601712598e+06  6.1322017874767734e+06  6.7125743924230505e+06  6.5754185415220410e+06  6.5304563057827270e+06  6.9497920202833237e+06  6.7732413874200704e+06  3.8924365115411743e+06  4.2504968157575661e+06  4.5775480376425050e+06  3.9962930576540497e+06  3.7788623408861598e+06  3.7850957123161550e+06  4.1556572650346328e+06  3.4430187876368794e+06  3.4914770012787841e+06  3.9540084374601967e+06  3.9360794318761677e+06  7.7760497870730562e+06  8.0753452841978194e+06  7.9067351944518806e+06  8.1010343580304747e+06  8.2408299041149737e+06  7.4983505079786582e+06  7.1386617438417915e+06  7.4757060521395728e+06  7.3448104144791346e+06  4.9572674333551377e+06  5.3776522029443840e+06  5.5521844247352676e+06  4.9736715860702125e+06  7.6032559959254814e+06  7.4306502743913690e+06  7.3662783483215561e+06  7.2402404504677635e+06  3.7333651148480889e+06  3.8154250309344716e+06  6.2951064850989087e+06  6.1469890711069368e+06  5.8914781102661584e+06  7.6113899791495558e+06  7.3588063358040676e+06  7.7227162127501285e+06  7.4500360665621227e+06  5.1618160652264562e+06  4.7258910685646189e+06  4.7140843722733539e+06  4.9723144355182732e+06  4.8343292720624851e+06  5.0007721570446603e+06  3.9228737038074047e+06  3.7343336252341568e+06  3.6556576911844108e+06  3.5885210927787647e+06  3.8674829338707929e+06  3.8691959544581878e+06  4.3358824343050374e+06  4.5024480853670798e+06  4.7345789912629984e+06  4.4060325834160345e+06  3.6550221456736592e+06  4.1168882525696047e+06  4.3043833504742188e+06  4.3054173260052539e+06  3.8118048290225687e+06  4.1077394685158622e+06  5.5840636490369206e+06  5.8843928372802362e+06  5.5172380935891652e+06  5.3817101091041006e+06  3.8101398811481339e+06  4.0934246371194883e+06  3.5820878338892506e+06  4.0429353258171673e+06  3.5283211453781193e+06  3.8131821901734998e+06  3.4171018016666165e+06  3.5612107046053638e+06  3.7217682992470171e+06  3.7959622004146390e+06  3.6357751442922289e+06  7.0157615554913152e+06  6.8793333921429384e+06  7.2338243870278215e+06  7.2027803723057816e+06  7.6263962946311496e+06  4.4180809236208256e+06  4.4584494162055617e+06  7.5057372644253140e+06  6.6871785297474181e+06  5.9521309984545754e+06  6.0510746846966697e+06  6.4865289746881155e+06  7.3257995991399912e+06  7.1136052265025042e+06  6.3905953692953959e+06  6.3900997828950770e+06  5.9826436044602534e+06  5.4674627204101356e+06  3.3964334424688667e+06  3.5913708120860290e+06  3.5641216786237136e+06  6.0136434830579534e+06  6.4201747511138888e+06  8.0362343636861285e+06  8.1438176794836875e+06  7.6576600033482397e+06  7.9620056939005367e+06  7.6796490458764089e+06  7.7062256344704144e+06  7.2894568494934291e+06  7.2158319144360656e+06  5.3027330082573518e+06  4.1212615600585300e+06  5.7734889055357622e+06  6.2425648253848348e+06  3.6952677326988969e+06  3.8945370931178564e+06  3.8992841626138333e+06  4.0369068758417740e+06  4.4303011291143401e+06  5.0713964986386048e+06  4.7616406093129553e+06  4.6465749029009780e+06  5.4200730271743611e+06  6.0603377599169929e+06  6.1206642847441807e+06  6.1106951484161550e+06  6.1965287613306250e+06  6.9518082762233485e+06  6.7796729256521268e+06  5.2660212233832236e+06  4.5799489807164948e+06  4.3772921974116396e+06  4.6851136720433272e+06  4.5069859272679323e+06  4.3537055684877047e+06  4.8861559187945779e+06  5.3177686889913231e+06  4.8337219144900795e+06  7.9896205429694932e+06  5.2361018316620523e+06  4.7733491022783462e+06  6.8158600008588433e+06  7.1751790215524090e+06  7.5057348016357515e+06  7.3505383121483689e+06  4.0237297713195495e+06  3.9586954690423929e+06  3.7166912538372898e+06  6.1203586329748202e+06  3.9675145862921220e+06  6.2272604745317539e+06  3.9125668322182782e+06  3.6631366397843985e+06  6.2303320344652608e+06  4.4010978515400775e+06  7.2584601615369217e+06  3.4204247982876403e+06  3.3953236132922233e+06  3.3420237606601678e+06  3.3210288268588078e+06  3.3943465030784165e+06  6.6450474035618491e+06  3.6896885574261253e+06  3.8992486547506219e+06  3.7874548503098134e+06  7.9945690232488485e+06  5.8849218795613144e+06  5.1322726929417457e+06  5.1388978010457987e+06  5.2601958053070009e+06  3.7149058535426208e+06  7.4485048803285360e+06  7.5081803292316105e+06  3.7493423747174297e+06  3.7928651151098404e+06  4.3537275604421068e+06  4.3977041482016454e+06  3.8511496855885051e+06  5.4796326360737151e+06  6.3897922976964293e+06  6.5373819765432728e+06  6.2105577702240506e+06  6.5879478519946635e+06  3.5337791017604969e+06  3.4945504200931271e+06  3.5343129437734690e+06  3.5226245489759096e+06  7.4012526038160985e+06  3.6187497087727981e+06  3.7738252614950524e+06  3.8932944239861080e+06  4.8098977447965983e+06  4.8094558402964529e+06  4.8729663569615735e+06  4.6914984044175334e+06  3.4296929714053785e+06  3.3586238750902340e+06  3.3787643193854187e+06  4.8881362016633414e+06  7.8176757189252200e+06  7.8830770432561450e+06  7.9516336840099357e+06  6.3050726319322400e+06  7.1906267022063527e+06  4.9637871259132577e+06  4.5541257450084072e+06  4.4383458418562738e+06  4.6368419378235312e+06  7.0651326233409299e+06  6.6236389829571825e+06  6.7435384601243054e+06  3.4902288289217586e+06  3.4850328060069913e+06  3.5444731674766592e+06  5.0235303473984711e+06  5.2395657055281401e+06  5.1879469727930995e+06  4.9281254318194427e+06  7.2789477604777459e+06  4.0034022387486915e+06  3.9463369808783047e+06  3.9847603852121951e+06  6.2186819800900966e+06  6.1751859441563152e+06  6.1937262767200219e+06  3.9950253006956545e+06  4.1374703240847085e+06  4.2615250007649232e+06  3.5887487322651572e+06  3.9785157846058165e+06  3.9287207362036142e+06  6.2847220403812286e+06  6.3720255745903561e+06  6.3270988401955524e+06  6.2498685072648469e+06  6.2633761938834088e+06  6.2647452301525669e+06  6.2503884461773830e+06  4.3574081437402023e+06  3.9865274673499232e+06  4.3515189349821294e+06  7.3868580582293645e+06  4.7720637698170943e+06  4.6911820145228505e+06  3.4419974050193960e+06  3.3958448441678365e+06  3.5862105838610441e+06  3.6411751561628319e+06  3.4162757004441475e+06  3.3399436929648439e+06  4.9988325401727380e+06  4.8353376769909710e+06  4.9286819756064378e+06  6.5499753656890485e+06  6.6974128585949894e+06  3.8856221637771581e+06  4.0612979989692932e+06  3.5615868306905017e+06  3.6824682601388050e+06  4.0399432981794225e+06  3.5134739600528060e+06  3.5321701745529384e+06  3.4088335543164127e+06  4.1983012104677279e+06  7.9725871227361085e+06  5.0021856316643525e+06  5.2137083587658806e+06  5.1015703108814228e+06  7.3271075102302218e+06  7.3571616539996937e+06  7.2552216373351598e+06  4.8354587431980986e+06  5.1163232875649706e+06  4.8694022462470150e+06  4.2308168494570106e+06  5.3373463073732946e+06  5.3161242468587672e+06  3.4407259697944322e+06  3.5394613557448396e+06  7.1278218513851715e+06  7.0970312361295978e+06  7.2050198782816632e+06  3.5717170911230515e+06  3.9333979067197340e+06  </DataArray> 
</PointData> 
</Piece>
</UnstructuredGrid>
</VTKFile>