<?xml version="1.0"?>
<VTKFile type="UnstructuredGrid"  version="0.1"  >
<UnstructuredGrid>
<Piece  NumberOfPoints="784" NumberOfCells="1320">
<Points>
<DataArray  type="Float64"  NumberOfComponents="3"  format="ascii">266913.131276 586512.314988 0  266738.13716 587762.325998 0  266363.132677 589012.328643 0  266175.641078 590169.601714 0  265666.575631 591040.7699119999 0  264875.64001 591687.766419 0  264900.636161 591845.049083 0  266088.14152 592012.3229499999 0  265561.959259 592661.17101 0  264288.136855 593037.368683 0  263865.194033 593999.8486949999 0  263850.641856 593236.729596 0  263625.634872 592756.525286 0  262689.574249 593299.848918 0  262475.636737 594003.0907310001 0  261934.554452 594340.929792 0  261725.631329 594932.094409 0  261729.256443 595728.498809 0  262138.136044 595012.330523 0  262288.141035 596262.333669 0  261488.994028 597511.480605 0  261234.15567 598316.338928 0  260815.635063 599014.863821 0  261400.643658 599389.7367680001 0  261322.963374 600022.185065 0  261119.455248 600931.061306 0  261607.436504 601293.0629359999 0  260807.446929 602089.899812 0  260025.642878 602988.868697 0  259613.135827 603937.3854499999 0  259050.643123 604100.987861 0  258411.880065 603988.6335979999 0  257764.357469 604449.872569 0  257971.239668 605320.429125 0  258041.396867 605740.635381 0  257188.143339 606987.394312 0  256038.141198 608112.3554550001 0  254788.141633 609087.4026939999 0  253588.140656 609812.362881 0  252338.135706 609737.4048949999 0  251088.138116 609787.404055 0  249963.12851 610287.399466 0  248613.130524 610462.365857 0  247363.132198 610687.407659 0  246113.130532 610837.411551 0  245832.347438 610918.209918 0  245016.946433 610958.5639439999 0  244313.129646 610762.372259 0  244400.622144 611378.093316 0  243939.669208 612460.8930899999 0  242960.649733 611984.892792 0  242170.381438 611919.647351 0  241888.122919 611112.375656 0  241393.380757 610467.6456149999 0  240594.157528 611306.369822 0  240525.621947 610804.648112 0  240363.123632 610512.3745050001 0  239113.123247 610262.374278 0  239813.12126 609037.412459 0  240588.122952 607812.368199 0  241013.119545 606625.9534560001 0  241454.373249 605724.888025 0  242238.120107 604687.3993 0  243088.121248 603462.362766 0  242860.319451 603007.3932640001 0  241563.116617 603812.361344 0  241778.400913 604327.642217 0  242059.837234 604824.879102 0  241475.620201 604923.2402390001 0  241462.182234 605449.881372 0  240906.219606 605674.888222 0  240241.856192 606891.125066 0  239891.734044 607841.012479 0  239048.653431 608724.889805 0  238118.054545 608974.895967 0  238888.111029 607337.406468 0  239738.119992 606212.362729 0  240288.12044 605687.4075229999 0  240380.212307 604729.521696 0  239347.309632 604603.204501 0  238888.112036 604387.408787 0  237913.11173 604687.401386 0  236784.172023 604499.882783 0  236883.408793 603717.08334 0  236154.933927 603595.565605 0  235688.103943 602912.369264 0  235763.108033 601662.366516 0  236363.110805 600412.35884 0  236738.107995 599162.356577 0  236525.607944 598482.2412899999 0  236138.109208 599362.357613 0  235725.063048 600325.4466510001 0  235091.948926 601408.5220979999 0  235188.10921 600312.366344 0  234375.602405 600833.9674270001 0  234663.109308 599912.358011 0  234138.105122 600062.365644 0  233955.307245 599029.561063 0  233338.103791 598387.401556 0  233988.09795 597862.356384 0  235138.101489 596637.3947750001 0  235563.1039 595387.392428 0  236513.103639 594212.356312 0  237163.10684 592987.3929869999 0  238313.103031 591862.3515540001 0  239513.107028 590812.3512640001 0  240638.102135 589787.387271 0  241463.109549 588587.378486 0  242294.489816 587443.735215 0  242913.101099 586512.341804 0  243544.066915 585474.859604 0  243040.448415 585184.975583 0  242438.10214 585337.38015 0  241313.102353 586562.339499 0  240538.107104 587787.382449 0  240114.641085 588588.939407 0  239388.100256 589437.382238 0  238188.104456 590512.346358 0  236938.100507 591362.349798 0  235813.10453 592537.396388 0  234864.502938 593178.7753880001 0  234463.097651 592862.357267 0  235113.0965 591662.3545979999 0  235713.101522 590412.346099 0  235777.688431 589976.7582779999 0  234943.583145 590706.265132 0  234462.482256 591490.2841159999 0  233801.497784 592112.940187 0  233388.099101 591787.394208 0  234013.093099 590437.393065 0  234776.217248 587148.7548100001 0  235163.093726 586562.3486189999 0  235313.098918 585483.229012 0  235250.59732 584662.298153 0  235588.093896 583337.379493 0  236329.432041 582199.858992 0  237188.096234 581462.3349939999 0  237463.088521 580212.335511 0  238350.592558 579057.652616 0  238591.415797 578574.847681 0  238313.094106 577612.328905 0  239229.696732 577695.769664 0  240195.161018 577513.008613 0  240614.996733 577149.8518770001 0  240663.091715 577412.332622 0  240288.092486 578662.334085 0  239942.357258 579508.095811 0  240438.100019 580212.3334220001 0  241338.095553 580387.375355 0  241238.099828 579137.369157 0  241788.097003 577887.370889 0  241983.554649 577241.9220939999 0  242054.178239 576927.8105029999 0  242588.100699 575737.366175 0  243149.324833 574898.583978 0  243695.278626 573919.517981 0  244268.494418 573724.8454239999 0  244995.134063 573930.2767810001 0  245417.314363 573391.601898 0  243450.599125 571859.479773 0  245776.797908 572599.8353060001 0  246779.639852 572973.285167 0  248034.741935 573186.082054 0  249413.10651 573162.3205520001 0  250496.922226 573271.1521899999 0  251613.105126 573237.3551319999 0  252421.824577 572846.032906 0  253256.245022 572580.4733130001 0  253739.471933 571960.9547369999 0  254174.511864 572149.8346569999 0  254484.944333 571684.194807 0  254384.108649 570891.346712 0  254344.002752 570218.26407 0  255025.609604 570829.0294979999 0  255715.005913 570489.264586 0  256218.846343 570774.828355 0  256834.349083 570508.5908 0  257390.092515 570014.308325 0  257624.431042 568493.478911 0  259355.811717 569380.021819 0  260033.372814 569617.066669 0  262679.741751 570320.699974 0  263289.115756 569524.817815 0  263463.114338 570512.301061 0  264638.198419 570687.3443539999 0  265058.220065 571334.378467 0  265447.561421 572077.90485 0  265488.125257 573137.3446020001 0  265131.937715 573963.293593 0  265432.389648 575093.068786 0  265638.122314 576338.029955 0  265750.630817 577371.8281319999 0  265738.570663 578561.9098850001 0  265875.630866 579139.630549 0  266213.129247 579862.311842 0  266563.130472 581112.314509 0  266238.135356 582362.310259 0  265938.12863 583612.320897 0  265738.131342 584762.3210189999 0  266875.638633 585365.358768 0  264018.7239399826 593650.4646671159 0  262236.3944351029 595831.1252656333 0  241846.246678 605206.1436625 0  240200.622106 608424.8903290001 0  240943.4862974102 610939.7757535663 0  236550.6094 599787.3577085 0  238528.1212051503 608102.9081793013 0  244413.4891967989 572609.5960859474 0  236382.0474488751 598808.3067022427 0  235369.601910944 600933.5380148316 0  235413.099011 591037.3503485 0  235446.2251831186 590266.6553871984 0  240475.5921005 578037.3333535 0  240413.173949154 577324.4280286073 0  240574.037899 606283.0066440001 0  263857.9179445 593618.2891454998 0  264153.4303974913 593343.916675058 0  242042.1833925 604946.7714812499 0  241650.3099635 605465.51584375 0  244613.6985165 572229.6575395 0  236631.8579695 598822.2989335 0  235140.029068 600860.444221 0  241767.7287175 604874.0596705 0  242140.15174975 604817.0853906251 0  234781.8558075 600573.1668855001 0  242091.167571125 604881.9284359375 0  234519.3558565 600373.162719 0  254604.8337712102 583989.0014118921 0  250699.5846056537 594617.3297041012 0  250540.4796469513 602258.2940568649 0  248483.7490186612 580334.7345534252 0  258549.2190328319 577893.951823392 0  257067.0067473103 590016.5327808241 0  243285.0921999099 596333.923437875 0  248333.1386145258 589098.0389905117 0  256142.8445072741 595883.3911551933 0  260245.1368072523 583315.2785712298 0  253472.3380211276 578932.2908163272 0  246432.3347504817 599884.5019511909 0  261555.9240922556 588041.186709004 0  247293.1100123104 605823.8307887657 0  246458.2798550911 593168.8646574575 0  252840.0183145193 588226.5564648228 0  249828.2874404451 584740.7888937403 0  255409.5660975206 600458.8956828594 0  260819.9733392385 574219.403683011 0  252584.2262054711 605722.6603825617 0  254049.8830611471 592547.4852571967 0  250015.4356193061 598425.2225922942 0  245872.072249477 577604.9761853142 0  262002.1583249522 579753.4663046852 0  257732.6630933878 586227.970805314 0  250242.5556457866 577017.3316409125 0  244921.6453001869 581816.6358421432 0  256520.3890639471 580904.824006648 0  240779.0970645865 599524.6679555867 0  257100.1829219198 574459.5922545703 0  239912.2630002034 595231.1172704464 0  244703.0875078634 590068.6945953515 0  242549.5490268674 592874.3693043783 0  251586.0465921376 581796.2215047925 0  246643.189997516 596527.447801719 0  251049.7658069622 591057.6752245198 0  253014.5731561695 596998.6601086652 0  238680.2197353724 584542.2309791476 0  259715.365803504 591937.1938619445 0  254097.157218761 575731.4494927844 0  246806.6408589328 586139.0877599345 0  246136.1179750556 602959.471719323 0  253520.7033332401 602835.180253843 0  244125.4295793909 607538.9817227355 0  252546.8895354472 599881.3279113505 0  258289.0983523553 600397.640191779 0  247518.7952199645 583037.3718217331 0  263140.3959879661 582529.2228421422 0  262894.8586894067 585442.3590432997 0  256968.6320599076 593040.7691844478 0  243573.0187527719 600218.2795730785 0  258888.5766127351 595139.7745218446 0  262588.7569809347 576734.8569237856 0  259318.4257992262 580601.2540325444 0  249963.3812725965 607065.7205847671 0  257494.5307999607 583482.5893534871 0  258906.4757205145 572278.8089438241 0  237751.446593475 587300.5805003279 0  255142.4708720699 604956.7580261135 0  258485.4978753244 597756.9250383095 0  255516.7820591553 587791.39641967 0  239758.4692108706 601926.8203218657 0  255873.0092222999 577739.5085867504
[...]
<PointData  Scalars="f_32-0"> 
<DataArray  type="Float64"  Name="f_32-0"  format="ascii">3.7660338367657014e+06  3.8403665589290936e+06  3.9305326232321393e+06  4.0037604133383408e+06  4.0555420470145261e+06  4.1305040730533455e+06  4.1514223237064132e+06  4.1620706937592989e+06  4.1636787003565361e+06  4.1886785248679128e+06  4.1945871721892599e+06  4.1955768101256574e+06  4.2205398123228056e+06  4.3615188361665942e+06  4.4436047830544058e+06  4.5144692269417970e+06  4.6063218828970501e+06  4.7024944076648969e+06  4.7130188124404484e+06  4.7279505736639695e+06  4.8037322788206404e+06  4.8621739965990428e+06  4.9268641184695791e+06  4.9604685801916933e+06  4.9765439597726278e+06  5.0109113329065666e+06  5.0206965355540225e+06  5.0387851648177244e+06  5.0747015520208245e+06  5.0990375277917441e+06  5.1067291544689285e+06  5.1280597419570033e+06  5.1776259191395249e+06  5.2149387405060139e+06  5.2214845671050102e+06  5.2499294883051151e+06  5.2808686999220857e+06  5.3078333588094721e+06  5.3253342167920722e+06  5.3407808985733287e+06  5.3628773940703580e+06  5.3834765480174981e+06  5.4024126394272093e+06  5.4197121294022547e+06  5.4352850949050449e+06  5.4385308192578703e+06  5.4467147759779459e+06  5.4565828580203336e+06  5.4636075970942015e+06  5.4666729590736348e+06  5.4674027662960794e+06  5.4680868072918765e+06  5.4680946776949847e+06  5.4694642530597122e+06  5.4720864122713786e+06  5.4718968366988245e+06  5.4719377200236237e+06  5.4729133137365719e+06  5.4702494064354254e+06  5.4605318523168014e+06  5.4476454174205251e+06  5.4356074304386089e+06  5.4138649459588537e+06  5.3719375366413128e+06  5.3541573570470335e+06  5.3688214467876460e+06  5.3774701897684718e+06  5.3799553570163231e+06  5.3826021969163613e+06  5.3869379873001007e+06  5.3933746312357746e+06  5.4171524478609515e+06  5.4248699440471381e+06  5.4284809233853593e+06  5.4292051507348791e+06  5.4253010465296274e+06  5.4136279742301051e+06  5.3999291721436102e+06  5.3804089032461112e+06  5.3735095670345305e+06  5.3727481692462582e+06  5.3727004941254696e+06  5.3725030517996782e+06  5.3709049637156930e+06  5.3695418365259608e+06  5.3681254218034567e+06  5.3630283453924004e+06  5.3497296119753802e+06  5.3269783668691237e+06  5.3153968854218703e+06  5.3223173530825004e+06  5.3264806584288226e+06  5.3279224713041382e+06  5.3267215771836042e+06  5.3272129074991187e+06  5.3259225761242602e+06  5.3256095989623405e+06  5.3236957458748883e+06  5.3227132837762134e+06  5.3205036362660984e+06  5.3013028097556960e+06  5.2777054793284107e+06  5.2425835170262577e+06  5.2032813836745890e+06  5.1491067132793907e+06  5.0734682762429714e+06  4.9733150101728840e+06  4.8578843527098447e+06  4.7331542523684166e+06  4.6138566191938315e+06  4.4329354280778524e+06  4.3261433555105506e+06  4.2831230938810650e+06  4.2690084033251619e+06  4.2737563046408119e+06  4.2771311619401341e+06  4.2807662083219597e+06  4.2857758921996988e+06  4.2902777580196504e+06  4.2940185697676605e+06  4.2949044225429539e+06  4.2949131776143853e+06  4.2935521650625868e+06  4.2900400166982589e+06  4.2887617744126497e+06  4.2911837939671148e+06  4.2929022725058841e+06  4.2934592922284510e+06  4.2934607381580025e+06  4.2916580439645872e+06  4.2807148234905787e+06  4.2770325912148636e+06  4.2698801934250183e+06  4.2650713525425065e+06  4.2577271065265685e+06  4.2489817074006284e+06  4.2378077831005603e+06  4.2267126803683490e+06  4.2199220797010781e+06  4.2187493271476123e+06  4.2184080300077386e+06  4.2182290973774912e+06  4.2180197037357548e+06  4.2180137776982998e+06  4.2180138080258043e+06  4.2177186148743769e+06  4.2152797112236461e+06  4.2006553423822364e+06  4.1461687673952016e+06  4.0690025684409584e+06  4.0069952612484046e+06  3.9738370580370114e+06  3.9604998872163524e+06  3.9104260806485536e+06  3.8748300260007721e+06  3.8461321366873654e+06  3.8374661006087349e+06  3.8101417183655179e+06  3.7739798338040598e+06  3.7603598427218851e+06  3.7625926278999210e+06  3.7437457023064108e+06  3.6853018016732559e+06  3.5940422539704982e+06  3.5002956942657200e+06  3.3593538108089301e+06  3.2319551646731352e+06  3.0999018879656871e+06  3.0122352231405424e+06  2.9617565839580717e+06  2.8549564468866424e+06  2.7982557272712979e+06  2.7929266949931681e+06  2.7844435381699563e+06  2.7428147175570102e+06  2.7007983699451140e+06  2.6111440610435479e+06  2.5189538911562474e+06  2.4588544382521915e+06  2.4379924008074002e+06  2.4132956544899959e+06  2.3196291327782902e+06  2.3044150724215684e+06  2.3090005110178995e+06  2.3055422503704531e+06  2.3125109886783869e+06  2.3290281683098371e+06  2.3657705914427410e+06  2.4328485402140534e+06  2.5458968830256988e+06  2.6645916117238742e+06  2.7692657205610196e+06  2.9112002783162929e+06  2.9920516838126052e+06  3.0771986278867116e+06  3.1805595650451290e+06  3.2944321866219919e+06  3.4464708460122016e+06  3.6203915843703100e+06  3.7159050360905034e+06  4.1946631303467611e+06  4.7177214485183042e+06  5.4261528188375691e+06  5.4664715341432551e+06  5.4717703545496883e+06  5.3394964030425623e+06  5.4281752008417714e+06  3.7617238531236597e+06  5.3181616922108978e+06  5.3276323788848743e+06  4.2920358408881817e+06  4.2895619391243523e+06  4.2179814076378150e+06  4.2180140406709267e+06  5.4072670977349831e+06  4.1946448680704748e+06  4.1945538245406346e+06  5.4203694609025009e+06  5.4312898279647157e+06  3.7617269629799612e+06  5.3198666638591494e+06  5.3276332786488440e+06  5.3803490210210653e+06  5.4172274795836955e+06  5.3269934979556063e+06  5.4188214765954269e+06  5.3269854410958355e+06  3.9245575733502568e+06  4.9096451814847868e+06  5.2433743676791741e+06  3.9440389259481155e+06  3.0660051196505609e+06  4.3658341122497572e+06  5.1788496607185192e+06  4.6219642668706188e+06  4.8282533478308469e+06  3.5758800783339208e+06  3.5559857298505553e+06  5.2407096046579871e+06  3.9958536415695664e+06  5.3757090668328218e+06  4.9537101571482327e+06  4.3903233025454590e+06  4.2202110194215728e+06  5.0807307703028768e+06  2.5630512154553551e+06  5.2940747699011965e+06  4.6781499636155292e+06  5.1145805192957828e+06  3.8939935867394442e+06  3.0934945430923463e+06  3.9769497985072643e+06  3.6476915888674003e+06  4.1481947862621523e+06  3.5303008202347280e+06  5.3068131229828428e+06  2.8459147868158035e+06  5.2102249986802265e+06  4.8213422297802297e+06  5.0560006216120813e+06  3.9040553609997178e+06  5.1121403292821385e+06  4.6738190565295927e+06  4.9742400771517511e+06  4.2572289391524233e+06  4.4129182699205540e+06  3.2278842765478934e+06  4.4363212297880845e+06  5.3317938309195573e+06  5.2058548849346479e+06  5.4349976404196974e+06  5.1196615058413269e+06  5.0213153998945560e+06  4.1703683854999305e+06  3.3834676299775550e+06  3.7038169032144938e+06  4.6110430302751372e+06  5.2924838973491257e+06  4.7009730799277257e+06  2.7285951219383697e+06  3.3298921552481526e+06  5.3565354655431900e+06  3.7202294210773674e+06  2.5504668686439437e+06  4.2764559172736052e+06  5.2360004737198325e+06  4.8840120153320292e+06  4.2346899137577005e+06  5.3540231056742975e+06  3.2559022195131746e+06  4.1947276514253616e+06  4.2206422621012582e+06  4.8459358614298347e+06  4.0347864214643459e+06  3.7390218735955246e+06  3.8841370121600381e+06  4.4786047848611875e+06  3.7693542588058454e+06  3.7393958577921102e+06  3.8246318410726162e+06  4.1332766118002594e+06  5.4161354769759057e+06  5.3081972839724896e+06  4.0662397414427223e+06  5.3919855905861640e+06  5.2096719664291991e+06  5.2201209577276343e+06  5.2855175871618288e+06  4.2304671524313781e+06  4.3054470624443684e+06  4.9746088098764122e+06  5.1186852806645399e+06  4.4137206798304664e+06  5.3080708880256535e+06  4.1599745807615360e+06  4.8442666142625101e+06  2.3878842761322903e+06  3.8183333657277604e+06  4.9922950119371582e+06  5.2421967366641574e+06  4.8006985825749561e+06  5.0688126643809797e+06  4.6285340015349984e+06  5.1247545130546661e+06  2.7918089574281899e+06  4.0010323664485025e+06  4.0363825459996951e+06  5.2677354808015116e+06  4.9575654863200877e+06  3.1193842776230159e+06  5.3165382519347183e+06  4.7653135031964490e+06  5.3336983820072198e+06  2.5153569441121886e+06  5.4213473046737248e+06  5.4187858757976154e+06  3.9492461193604674e+06  4.1748281718833945e+06  5.4198104495231351e+06  5.4362334008649755e+06  5.3124809579536719e+06  5.3167605347208800e+06  4.2869994214461902e+06  2.8418975289140553e+06  5.3383633628229145e+06  5.2326674323601881e+06  3.9606598062784490e+06  4.1537893667479004e+06  4.0477581893855389e+06  5.4344332216984248e+06  5.4181006519988906e+06  4.5715710989760347e+06  5.3679145047133630e+06  5.3962890984930731e+06  5.4079764591662493e+06  5.4374124958232436e+06  4.2977142016626643e+06  3.7695187309064479e+06  4.2884458038294306e+06  2.6713043024216113e+06  4.1127591948455521e+06  2.9722660314577278e+06  4.2807116692827223e+06  5.4634489944443461e+06  4.2643522039611898e+06  4.2895154528521076e+06  5.3135699248690857e+06  4.2651469341190988e+06  2.4626704428428039e+06  4.2884313814362213e+06  3.2870041569146784e+06  3.8491258281366350e+06  5.3165038163040364e+06  5.2991295337785603e+06  4.2214937337538265e+06  5.4630168294115374e+06  3.5954268716922193e+06  5.3445658977683689e+06  4.8366126469696434e+06  2.3437403149126256e+06  2.8776337101590661e+06  3.0551072984112301e+06  5.0958905299231810e+06  5.3529556645842139e+06  5.3290552169711813e+06  4.9902575326585313e+06  5.4290408114114692e+06  4.6728565957806576e+06  3.7637456269103838e+06  3.7633246177223227e+06  2.5592167687527835e+06  5.4196194032360464e+06  5.4233409706548881e+06  5.4248488095895378e+06  5.2235830170985004e+06  5.2924030192866139e+06  5.4225914754275829e+06  5.3947899046452241e+06  4.2753536428084131e+06  5.4711883703238638e+06  5.4705970783905108e+06  4.2049424165370520e+06  2.7316556445849962e+06  4.2181796527076904e+06  5.3678929843850723e+06  4.4364197745336704e+06  4.2477433342548795e+06  5.4649449546637004e+06  4.2464904174918449e+06  5.1414506044029249e+06  3.5118480547673278e+06  3.9647124758146722e+06  3.9346425055492339e+06  3.9956556001846711e+06  5.3229425310002323e+06  4.1461639078381327e+06  4.1705201093030553e+06  4.1171263975092326e+06  4.1686322846347108e+06  4.0428876444111788e+06  2.3346563656207314e+06  2.4046161988246990e+06  4.2495934621756626e+06  3.9196206663965657e+06  4.2946327929735417e+06  4.2945460166022237e+06  5.4688538643086804e+06  4.9146353609551080e+06  4.7759411019498557e+06  4.4506989927499937e+06  4.3654003557880213e+06  4.3476300527298525e+06  4.2988853129590163e+06  4.3277784972518766e+06  4.2913092951392280e+06  4.2698514988082107e+06  4.2821470125300856e+06  4.2614825668129614e+06  4.2638772427193094e+06  4.2634096621104311e+06  4.1375114517543139e+06  4.1834379377230224e+06  3.6408239428697345e+06  3.6998366945213741e+06  3.6359569246038762e+06  3.5521898177803019e+06  3.5860126105077774e+06  3.4369425808298024e+06  3.5423287299897075e+06  3.4905881420185403e+06  3.1998227051164615e+06  3.0748484737624768e+06  2.6299375340344193e+06  2.7163468646133421e+06  2.6932606077385438e+06  2.8343577401780067e+06  2.7480170020685052e+06  2.9525418122202610e+06  2.9407462380243572e+06  2.8139314178588591e+06  3.0391472779995082e+06  2.9755842451830371e+06  3.0844693157621026e+06  3.0193078569376990e+06  3.1493736270721299e+06  3.3379357245314959e+06  3.2144860493989787e+06  3.9427836056149197e+06  3.7311069812294631e+06  3.8207571761848433e+06  4.0422452948648543e+06  5.0187483595480798e+06  4.9423022204429768e+06  4.8787856544302432e+06  4.9514393144008778e+06  5.1858692842314262e+06  5.2783658253641995e+06  5.2324630673644710e+06  5.2770281678718375e+06  4.0564949404213866e+06  3.8612094358242736e+06  3.8770308115590108e+06  3.9748274365719613e+06  3.0669166623268439e+06  3.3118120993800224e+06  2.9361239807586907e+06  3.2006579137209896e+06  3.1573391933666999e+06  2.9229012795764948e+06  4.3904041351338057e+06  4.4931440470760148e+06  4.3023608030960727e+06  4.4237226207403596e+06  4.2509595122779198e+06  5.1941718198505053e+06  5.1210765487229601e+06  4.6486554185378794e+06  4.5327036871480411e+06  4.7401551701210095e+06  4.5197287652581679e+06  4.7133570659632226e+06  4.6255874164451752e+06  4.7549910242405673e+06  4.9030287076836480e+06  4.8354743492088662e+06  3.3430965787300188e+06  3.4756217726771408e+06  3.6356759193174457e+06  3.4529259467662023e+06  3.5973314655202567e+06  3.5374426245184285e+06  3.7374452907075500e+06  3.3893941338029914e+06  3.4107219909797879e+06  3.6467157082272512e+06  3.6696353421670315e+06  5.1817831074543120e+06  5.2894303731138632e+06  5.2306314012045357e+06  5.2942808255332019e+06  5.3566205122395391e+06  5.0381759029175164e+06  4.8808477009641072e+06  5.0134096177901058e+06  4.9551416343223192e+06  4.3155832257155953e+06  4.4358606871093484e+06  4.4021234055766547e+06  4.2778318924020082e+06  5.1474230728862071e+06  5.0997442424374502e+06  5.0496311712909145e+06  5.0300853965959642e+06  2.6885088557538083e+06  2.6306754298115293e+06  4.6765927302430421e+06  4.6453156144668208e+06  4.5821599683009880e+06  5.1128224190455945e+06  5.0474046886736657e+06  5.1703037619271735e+06  5.0559763250975218e+06  3.9660745798562621e+06  3.8184709775463366e+06  3.8594183241833989e+06  3.9432732695879834e+06  3.8244241473616264e+06  3.8659720110621401e+06  3.2399786492076986e+06  2.9054955576656228e+06  3.2070238386425534e+06  2.9338213976713540e+06  3.1000308448794130e+06  3.0207166339521552e+06  3.8472528132561934e+06  4.1056691734224777e+06  4.0561252675188798e+06  4.0664361939741480e+06  3.4577791016101846e+06  3.7033371345525263e+06  3.6945869134538257e+06  3.7381114536224976e+06  3.4817323271691762e+06  3.6154146923159482e+06  4.1618156338769086e+06  4.1931140366119999e+06  4.0875881255329154e+06  4.0766766040953007e+06  3.4287587202799721e+06  3.6235193082020897e+06  3.3971196686434937e+06  3.6358189806168135e+06  3.0331966485244865e+06  2.6884821333721839e+06  3.0408942348926915e+06  2.8005901565106302e+06  2.8410665902182530e+06  2.7530407443094058e+06  2.9443824840864781e+06  4.8100355160378208e+06  4.7301307296721488e+06  4.8928042059304230e+06  4.8676553099801876e+06  5.0615977249939935e+06  3.8245243751254831e+06  3.8339261768770185e+06  5.0548858663427979e+06  4.7623694470013240e+06  4.5799300119318664e+06  4.5481552170854220e+06  4.7209069631340439e+06  5.0509178827815549e+06  4.9740376408103677e+06  4.2452785758473761e+06  4.2519191271506026e+06  4.5162093119255751e+06  4.2782916462794365e+06  3.2318407072319016e+06  3.2526398296230333e+06  3.1411514764145766e+06  4.4284846923804777e+06  4.5305960841673771e+06  5.2807446180946827e+06  5.3206743212835398e+06  5.1662550669788318e+06  5.2602037675355393e+06  5.1638212666174574e+06  5.1722233654901274e+06  5.0499095239645531e+06  4.9979086842207722e+06  4.0796533468565932e+06  3.2498284553775983e+06  4.5460473588425759e+06  4.5903185167306606e+06  2.7518683334492012e+06  2.8411435247503985e+06  2.7262076252532946e+06  3.5315775383339971e+06  3.7669067933817022e+06  4.3621417368096318e+06  4.1816504140953277e+06  4.1961140553192496e+06  4.1708303362781028e+06  4.2493700516226264e+06  4.2424172308995016e+06  4.2073989901022958e+06  4.2365674195612539e+06  4.8240197022219878e+06  4.8056978748818170e+06  4.0199676906913533e+06  3.9060722815648927e+06  3.7934354923697775e+06  3.9033021884770179e+06  3.7732362993178591e+06  3.6728491345586246e+06  3.9799547641345607e+06  4.2439594505962320e+06  4.1111675851860093e+06  5.2673818990965523e+06  4.2937036698660739e+06  3.9123140678897928e+06  4.7203254993169717e+06  4.8813650712328237e+06  5.0159125874000201e+06  4.9354906038572108e+06  3.0454155081903599e+06  2.6154417910883697e+06  2.9462710524770375e+06  4.2831646653112182e+06  2.8492250240995912e+06  4.2506963193882126e+06  3.4566810309574204e+06  3.1709720362789100e+06  4.2270305025195293e+06  3.9924721210290394e+06  4.9857470323017836e+06  3.0634298122077249e+06  3.1907838374932157e+06  2.9956903629355393e+06  3.1102467113841227e+06  2.9246152396399267e+06  4.6705534148713434e+06  3.5751962280766838e+06  3.6494041229674891e+06  3.6144468246475528e+06  5.2613428396451091e+06  4.5384902696066909e+06  4.3537391907084649e+06  4.3349876702661961e+06  4.3417864523998518e+06  2.6741141818959061e+06  5.0684279825402237e+06  5.0859011518370025e+06  3.2188340794640556e+06  3.1664798300414677e+06  3.9579779494831050e+06  4.0203253369326764e+06  3.5591384528084705e+06  4.1175048342195144e+06  4.6614006657152306e+06  4.7186760269649792e+06  4.6123735520185130e+06  4.7416402209113771e+06  3.3454946485862373e+06  3.1304353756742766e+06  3.2390993444975512e+06  3.1843300059326896e+06  5.0856475568691362e+06  3.2660437718595951e+06  3.3788302841762514e+06  3.4328816569972280e+06  4.2690345812313007e+06  4.2758071126958365e+06  4.2996775689275349e+06  4.2079015876238039e+06  3.3345392519949707e+06  3.1467413841825519e+06  3.2417164351509698e+06  4.1568188872740814e+06  5.2013804891136028e+06  5.2254008892088104e+06  5.2516174750840832e+06  4.2365596249569012e+06  5.0128059016893404e+06  4.2284815804454042e+06  3.8465300856371080e+06  3.8057508677783022e+06  3.8660540588047756e+06  4.8414669513292378e+06  4.6272204159963587e+06  4.6765512791290935e+06  2.9238206887861569e+06  2.8557160788065041e+06  2.7908852778396006e+06  3.9711312105771876e+06  4.0392413960546521e+06  4.0385545850033890e+06  3.9573058911853405e+06  4.9201237857471239e+06  2.8928890507171443e+06  2.9045299550481676e+06  2.9105460669697551e+06  4.2634638904457390e+06  4.2474787063556947e+06  4.2562574907739908e+06  3.5394259917922872e+06  3.6036884061442148e+06  3.6357059346050080e+06  3.0416841607036125e+06  2.7715205968351602e+06  2.7852110206975085e+06  4.2528452270711744e+06  4.2569001769587295e+06  4.2559334683543118e+06  4.2420372871143129e+06  4.2476888205402419e+06  4.2373668623647531e+06  4.2566572264237003e+06  3.6514035332442611e+06  2.8311747441399330e+06  4.0045113564172373e+06  5.0374973468904579e+06  3.9266344879041179e+06  3.8952570410410459e+06  2.9923432085129395e+06  3.2347933184788655e+06  3.2011153552607461e+06  3.3180634050983624e+06  3.2802268453997569e+06  3.0943516680082013e+06  4.2762947843886791e+06  4.2425980566217536e+06  4.2168476409472022e+06  4.7070184769177856e+06  4.6732893311219811e+06  3.2895866242397958e+06  3.3595360107712601e+06  3.4979972024756363e+06  3.5270057668380793e+06  3.7029459776591822e+06  3.4203941947005647e+06  3.4019641811237885e+06  3.3207302890783604e+06  3.7534224563486869e+06  5.2565622344807694e+06  4.3392047369176578e+06  4.3998712944795415e+06  4.2857490825086636e+06  5.0654790176738426e+06  5.0754196388057154e+06  5.0396881255777758e+06  3.9018588742948011e+06  3.9822681022479287e+06  3.9284619738054504e+06  3.6444975669743652e+06  4.0785450968554849e+06  4.0472316181722833e+06  3.1308556170409364e+06  3.0858093680827920e+06  4.8519529781750580e+06  4.8464747765035508e+06  4.8868505518555101e+06  3.1968988482380942e+06  2.8441726375379800e+06  </DataArray> 
</PointData> 
</Piece>
</UnstructuredGrid>
</VTKFile>