<?xml version="1.0"?>
<VTKFile type="UnstructuredGrid"  version="0.1"  >
<UnstructuredGrid>
<Piece  NumberOfPoints="784" NumberOfCells="1320">
<Points>
<DataArray  type="Float64"  NumberOfComponents="3"  format="ascii">266913.131276 586512.314988 0  266738.13716 587762.325998 0  266363.132677 589012.328643 0  266175.641078 590169.601714 0  265666.575631 591040.7699119999 0  264875.64001 591687.766419 0  264900.636161 591845.049083 0  266088.14152 592012.3229499999 0  265561.959259 592661.17101 0  264288.136855 593037.368683 0  263865.194033 593999.8486949999 0  263850.641856 593236.729596 0  263625.634872 592756.525286 0  262689.574249 593299.848918 0  262475.636737 594003.0907310001 0  261934.554452 594340.929792 0  261725.631329 594932.094409 0  261729.256443 595728.498809 0  262138.136044 595012.330523 0  262288.141035 596262.333669 0  261488.994028 597511.480605 0  261234.15567 598316.338928 0  260815.635063 599014.863821 0  261400.643658 599389.7367680001 0  261322.963374 600022.185065 0  261119.455248 600931.061306 0  261607.436504 601293.0629359999 0  260807.446929 602089.899812 0  260025.642878 602988.868697 0  259613.135827 603937.3854499999 0  259050.643123 604100.987861 0  258411.880065 603988.6335979999 0  257764.357469 604449.872569 0  257971.239668 605320.429125 0  258041.396867 605740.635381 0  257188.143339 606987.394312 0  256038.141198 608112.3554550001 0  254788.141633 609087.4026939999 0  253588.140656 609812.362881 0  252338.135706 609737.4048949999 0  251088.138116 609787.404055 0  249963.12851 610287.399466 0  248613.130524 610462.365857 0  247363.132198 610687.407659 0  246113.130532 610837.411551 0  245832.347438 610918.209918 0  245016.946433 610958.5639439999 0  244313.129646 610762.372259 0  244400.622144 611378.093316 0  243939.669208 612460.8930899999 0  242960.649733 611984.892792 0  242170.381438 611919.647351 0  241888.122919 611112.375656 0  241393.380757 610467.6456149999 0  240594.157528 611306.369822 0  240525.621947 610804.648112 0  240363.123632 610512.3745050001 0  239113.123247 610262.374278 0  239813.12126 609037.412459 0  240588.122952 607812.368199 0  241013.119545 606625.9534560001 0  241454.373249 605724.888025 0  242238.120107 604687.3993 0  243088.121248 603462.362766 0  242860.319451 603007.3932640001 0  241563.116617 603812.361344 0  241778.400913 604327.642217 0  242059.837234 604824.879102 0  241475.620201 604923.2402390001 0  241462.182234 605449.881372 0  240906.219606 605674.888222 0  240241.856192 606891.125066 0  239891.734044 607841.012479 0  239048.653431 608724.889805 0  238118.054545 608974.895967 0  238888.111029 607337.406468 0  239738.119992 606212.362729 0  240288.12044 605687.4075229999 0  240380.212307 604729.521696 0  239347.309632 604603.204501 0  238888.112036 604387.408787 0  237913.11173 604687.401386 0  236784.172023 604499.882783 0  236883.408793 603717.08334 0  236154.933927 603595.565605 0  235688.103943 602912.369264 0  235763.108033 601662.366516 0  236363.110805 600412.35884 0  236738.107995 599162.356577 0  236525.607944 598482.2412899999 0  236138.109208 599362.357613 0  235725.063048 600325.4466510001 0  235091.948926 601408.5220979999 0  235188.10921 600312.366344 0  234375.602405 600833.9674270001 0  234663.109308 599912.358011 0  234138.105122 600062.365644 0  233955.307245 599029.561063 0  233338.103791 598387.401556 0  233988.09795 597862.356384 0  235138.101489 596637.3947750001 0  235563.1039 595387.392428 0  236513.103639 594212.356312 0  237163.10684 592987.3929869999 0  238313.103031 591862.3515540001 0  239513.107028 590812.3512640001 0  240638.102135 589787.387271 0  241463.109549 588587.378486 0  242294.489816 587443.735215 0  242913.101099 586512.341804 0  243544.066915 585474.859604 0  243040.448415 585184.975583 0  242438.10214 585337.38015 0  241313.102353 586562.339499 0  240538.107104 587787.382449 0  240114.641085 588588.939407 0  239388.100256 589437.382238 0  238188.104456 590512.346358 0  236938.100507 591362.349798 0  235813.10453 592537.396388 0  234864.502938 593178.7753880001 0  234463.097651 592862.357267 0  235113.0965 591662.3545979999 0  235713.101522 590412.346099 0  235777.688431 589976.7582779999 0  234943.583145 590706.265132 0  234462.482256 591490.2841159999 0  233801.497784 592112.940187 0  233388.099101 591787.394208 0  234013.093099 590437.393065 0  234776.217248 587148.7548100001 0  235163.093726 586562.3486189999 0  235313.098918 585483.229012 0  235250.59732 584662.298153 0  235588.093896 583337.379493 0  236329.432041 582199.858992 0  237188.096234 581462.3349939999 0  237463.088521 580212.335511 0  238350.592558 579057.652616 0  238591.415797 578574.847681 0  238313.094106 577612.328905 0  239229.696732 577695.769664 0  240195.161018 577513.008613 0  240614.996733 577149.8518770001 0  240663.091715 577412.332622 0  240288.092486 578662.334085 0  239942.357258 579508.095811 0  240438.100019 580212.3334220001 0  241338.095553 580387.375355 0  241238.099828 579137.369157 0  241788.097003 577887.370889 0  241983.554649 577241.9220939999 0  242054.178239 576927.8105029999 0  242588.100699 575737.366175 0  243149.324833 574898.583978 0  243695.278626 573919.517981 0  244268.494418 573724.8454239999 0  244995.134063 573930.2767810001 0  245417.314363 573391.601898 0  243450.599125 571859.479773 0  245776.797908 572599.8353060001 0  246779.639852 572973.285167 0  248034.741935 573186.082054 0  249413.10651 573162.3205520001 0  250496.922226 573271.1521899999 0  251613.105126 573237.3551319999 0  252421.824577 572846.032906 0  253256.245022 572580.4733130001 0  253739.471933 571960.9547369999 0  254174.511864 572149.8346569999 0  254484.944333 571684.194807 0  254384.108649 570891.346712 0  254344.002752 570218.26407 0  255025.609604 570829.0294979999 0  255715.005913 570489.264586 0  256218.846343 570774.828355 0  256834.349083 570508.5908 0  257390.092515 570014.308325 0  257624.431042 568493.478911 0  259355.811717 569380.021819 0  260033.372814 569617.066669 0  262679.741751 570320.699974 0  263289.115756 569524.817815 0  263463.114338 570512.301061 0  264638.198419 570687.3443539999 0  265058.220065 571334.378467 0  265447.561421 572077.90485 0  265488.125257 573137.3446020001 0  265131.937715 573963.293593 0  265432.389648 575093.068786 0  265638.122314 576338.029955 0  265750.630817 577371.8281319999 0  265738.570663 578561.9098850001 0  265875.630866 579139.630549 0  266213.129247 579862.311842 0  266563.130472 581112.314509 0  266238.135356 582362.310259 0  265938.12863 583612.320897 0  265738.131342 584762.3210189999 0  266875.638633 585365.358768 0  264018.7239399826 593650.4646671159 0  262236.3944351029 595831.1252656333 0  241846.246678 605206.1436625 0  240200.622106 608424.8903290001 0  240943.4862974102 610939.7757535663 0  236550.6094 599787.3577085 0  238528.1212051503 608102.9081793013 0  244413.4891967989 572609.5960859474 0  236382.0474488751 598808.3067022427 0  235369.601910944 600933.5380148316 0  235413.099011 591037.3503485 0  235446.2251831186 590266.6553871984 0  240475.5921005 578037.3333535 0  240413.173949154 577324.4280286073 0  240574.037899 606283.0066440001 0  263857.9179445 593618.2891454998 0  264153.4303974913 593343.916675058 0  242042.1833925 604946.7714812499 0  241650.3099635 605465.51584375 0  244613.6985165 572229.6575395 0  236631.8579695 598822.2989335 0  235140.029068 600860.444221 0  241767.7287175 604874.0596705 0  242140.15174975 604817.0853906251 0  234781.8558075 600573.1668855001 0  242091.167571125 604881.9284359375 0  234519.3558565 600373.162719 0  254604.8337712102 583989.0014118921 0  250699.5846056537 594617.3297041012 0  250540.4796469513 602258.2940568649 0  248483.7490186612 580334.7345534252 0  258549.2190328319 577893.951823392 0  257067.0067473103 590016.5327808241 0  243285.0921999099 596333.923437875 0  248333.1386145258 589098.0389905117 0  256142.8445072741 595883.3911551933 0  260245.1368072523 583315.2785712298 0  253472.3380211276 578932.2908163272 0  246432.3347504817 599884.5019511909 0  261555.9240922556 588041.186709004 0  247293.1100123104 605823.8307887657 0  246458.2798550911 593168.8646574575 0  252840.0183145193 588226.5564648228 0  249828.2874404451 584740.7888937403 0  255409.5660975206 600458.8956828594 0  260819.9733392385 574219.403683011 0  252584.2262054711 605722.6603825617 0  254049.8830611471 592547.4852571967 0  250015.4356193061 598425.2225922942 0  245872.072249477 577604.9761853142 0  262002.1583249522 579753.4663046852 0  257732.6630933878 586227.970805314 0  250242.5556457866 577017.3316409125 0  244921.6453001869 581816.6358421432 0  256520.3890639471 580904.824006648 0  240779.0970645865 599524.6679555867 0  257100.1829219198 574459.5922545703 0  239912.2630002034 595231.1172704464 0  244703.0875078634 590068.6945953515 0  242549.5490268674 592874.3693043783 0  251586.0465921376 581796.2215047925 0  246643.189997516 596527.447801719 0  251049.7658069622 591057.6752245198 0  253014.5731561695 596998.6601086652 0  238680.2197353724 584542.2309791476 0  259715.365803504 591937.1938619445 0  254097.157218761 575731.4494927844 0  246806.6408589328 586139.0877599345 0  246136.1179750556 602959.471719323 0  253520.7033332401 602835.180253843 0  244125.4295793909 607538.9817227355 0  252546.8895354472 599881.3279113505 0  258289.0983523553 600397.640191779 0  247518.7952199645 583037.3718217331 0  263140.3959879661 582529.2228421422 0  262894.8586894067 585442.3590432997 0  256968.6320599076 593040.7691844478 0  243573.0187527719 600218.2795730785 0  258888.5766127351 595139.7745218446 0  262588.7569809347 576734.8569237856 0  259318.4257992262 580601.2540325444 0  249963.3812725965 607065.7205847671 0  257494.5307999607 583482.5893534871 0  258906.4757205145 572278.8089438241 0  237751.446593475 587300.5805003279 0  255142.4708720699 604956.7580261135 0  258485.4978753244 597756.9250383095 0  255516.7820591553 587791.39641967 0  239758.4692108706 601926.8203218657 0  255873.0092222999 577739.5085867504
[...]
<PointData  Scalars="f_32-0"> 
<DataArray  type="Float64"  Name="f_32-0"  format="ascii">5.8750434761666320e+06  5.9541241273097722e+06  6.0421311868436811e+06  6.1115933372841254e+06  6.1557721643037247e+06  6.2200962488107989e+06  6.2450227318110093e+06  6.2700093420016076e+06  6.2685249986606687e+06  6.2736295144290961e+06  6.2820035814032797e+06  6.2784160721723000e+06  6.2812968653605245e+06  6.3810358537376821e+06  6.4690287059297767e+06  6.5598786338307010e+06  6.6994346218479509e+06  6.8732999471921483e+06  6.8975729800022263e+06  6.9232728641803125e+06  7.0651954605027968e+06  7.1826365077701965e+06  7.3229171083078170e+06  7.4028395360159390e+06  7.4411937622028170e+06  7.5252309549795594e+06  7.5501470346447378e+06  7.5928163174596010e+06  7.6814592803034540e+06  7.7446154759472208e+06  7.7642639284878336e+06  7.8202901284901770e+06  7.9650823782818867e+06  8.0844502569115423e+06  8.1061169371990375e+06  8.1996658889324218e+06  8.3016836868539844e+06  8.3906156110359412e+06  8.4479594228032250e+06  8.4974762047360651e+06  8.5690438556708116e+06  8.6369826130368095e+06  8.7001652461177036e+06  8.7584626542563271e+06  8.8114689412647635e+06  8.8225760650759619e+06  8.8506495085746609e+06  8.8846523432726134e+06  8.9089935486981384e+06  8.9196316460607778e+06  8.9220991308458615e+06  8.9244147035293952e+06  8.9243250196160078e+06  8.9288455730609912e+06  8.9378573495448232e+06  8.9371932279511616e+06  8.9373076332289558e+06  8.9406432704473231e+06  8.9313553652997930e+06  8.8973834877656624e+06  8.8523800418609921e+06  8.8105204466172438e+06  8.7357801109524984e+06  8.5976685672100205e+06  8.5488576423684359e+06  8.6219079171767104e+06  8.6555805677558463e+06  8.6650485472043902e+06  8.6751464073468465e+06  8.6914574353425689e+06  8.7153792585788406e+06  8.8032761993749607e+06  8.8317597986887302e+06  8.8450715186277889e+06  8.8477390205182880e+06  8.8333492030355688e+06  8.7902596116483491e+06  8.7396599840220865e+06  8.6684533064136822e+06  8.6465184552136380e+06  8.6456872098871283e+06  8.6481685758356582e+06  8.6486120148113742e+06  8.6440091896998249e+06  8.6404991442940421e+06  8.6363056584745832e+06  8.6202472319675907e+06  8.5781141249295045e+06  8.5092706067108307e+06  8.4808860894551687e+06  8.5120111217986587e+06  8.5282247717177421e+06  8.5336900079435594e+06  8.5291877553377822e+06  8.5311097177212816e+06  8.5263591428990904e+06  8.5253110247057583e+06  8.5184963679273557e+06  8.5150789765118342e+06  8.5071566171588246e+06  8.4404030343524627e+06  8.3621343825827902e+06  8.2485989547439236e+06  8.1241459125055457e+06  7.9564256227170937e+06  7.7297011483028494e+06  7.4462486120500285e+06  7.1415076179935094e+06  6.8439128382720901e+06  6.5954763679357097e+06  6.3144934557578294e+06  6.3144972227674788e+06  6.4714055412648367e+06  6.8325871031729486e+06  7.0565771731184386e+06  7.1527182860621503e+06  7.2429152165888548e+06  7.3484499732483877e+06  7.4238441642352194e+06  7.4757867983368048e+06  7.4870568283801489e+06  7.4871652839579014e+06  7.4697597565117152e+06  7.4221575217659166e+06  7.4051570758833010e+06  7.4409153232653402e+06  7.4634119483665200e+06  7.4704810267236354e+06  7.4704791801111707e+06  7.4473458527283520e+06  7.2943933502400545e+06  7.2425412199428752e+06  7.1504089292430142e+06  7.0942287969966689e+06  7.0145042902417053e+06  6.9278894766708342e+06  6.8310491347760223e+06  6.7590249545017797e+06  6.7359486809331728e+06  6.7447571325021628e+06  6.7546638661070140e+06  6.7537856705739172e+06  6.7581511588980742e+06  6.7603323801404778e+06  6.7600643647363046e+06  6.7430551412852313e+06  6.6855808242801260e+06  6.5158222231502039e+06  6.1224501247063885e+06  5.7810147174259853e+06  5.5764508705772404e+06  5.4862389229415599e+06  5.4529727301727207e+06  5.3371751614039354e+06  5.2601353474300439e+06  5.2001015944598094e+06  5.1779163106791023e+06  5.1053292640630445e+06  5.0383227932241783e+06  5.0804352550975448e+06  5.0258578864828916e+06  4.9299003974331496e+06  4.7326264302460114e+06  4.5237015882007461e+06  4.4120018706059353e+06  4.3648393245163141e+06  4.3889345353664728e+06  4.4638192875564341e+06  4.5358149439975871e+06  4.5859864190730257e+06  4.7006745914012706e+06  4.7650732595164096e+06  4.7711620624953955e+06  4.7815923318980206e+06  4.8320649109714292e+06  4.8844885308241341e+06  4.9971126156288087e+06  5.1122566048902357e+06  5.1862600714150397e+06  5.2120475068829926e+06  5.2443401317176139e+06  5.3775147643054603e+06  5.3969211498538703e+06  5.3961533549604351e+06  5.4105634059389457e+06  5.4086804062091503e+06  5.3999626620914219e+06  5.3767589432238396e+06  5.3353717027718723e+06  5.2775193383847903e+06  5.2319904501389340e+06  5.2047058161400892e+06  5.1912782945746202e+06  5.2022749229618702e+06  5.2326408224025862e+06  5.2881535794571843e+06  5.3583808367630141e+06  5.4844928651144644e+06  5.6790512948106341e+06  5.8151043035160480e+06  6.2811089520367533e+06  6.9047112281272626e+06  8.7778616532206479e+06  8.9181560792470723e+06  8.9367641680086385e+06  8.5463988049334139e+06  8.8439449439665079e+06  5.0676499256844586e+06  8.4949383208630867e+06  8.5325949739110023e+06  7.4495772055658465e+06  7.4182596043575322e+06  6.7557404808977582e+06  6.7598775078681232e+06  8.7667660466454607e+06  6.2811094401285537e+06  6.2788578378767334e+06  8.7579998132983930e+06  8.7955791790229455e+06  5.0676512886613673e+06  8.4896907300421894e+06  8.5325980578703303e+06  8.6665694345121104e+06  8.7472498127651736e+06  8.5302827969269939e+06  8.7526998361909073e+06  8.5302541844880432e+06  4.6049239478079369e+06  6.9998005246685613e+06  8.1024297012648368e+06  4.7182430316094458e+06  4.5597088230196116e+06  5.4431415788423847e+06  7.9822888252957724e+06  6.2884698181086136e+06  6.8550071014576312e+06  4.9973016251321044e+06  4.2707977855741987e+06  8.1279243228549650e+06  5.7474281693983003e+06  8.5973172167179957e+06  7.2454232843774669e+06  5.1753819483844480e+06  5.3367430589099303e+06  7.4869325623660628e+06  5.0951375007989220e+06  8.3214472256276235e+06  6.2294022866966147e+06  7.6477086773301298e+06  5.0010774383999854e+06  4.8333111922828993e+06  4.8394560303355455e+06  4.3578866708309622e+06  5.5564591608618004e+06  4.5315506651991392e+06  8.4171560357092917e+06  4.6735826452708589e+06  8.1294406592824589e+06  6.9742594326835098e+06  7.6418419544461658e+06  4.7280329965662453e+06  7.7092480426002080e+06  6.2357747823673636e+06  7.1580092865017634e+06  6.9071328428724818e+06  6.1704473632039940e+06  4.2687509595712451e+06  6.0270182074318137e+06  8.4428471088677775e+06  7.9714964336005198e+06  8.8081350578378681e+06  7.6013116305746799e+06  7.4875126080530845e+06  5.3502632466942733e+06  5.1764639316404285e+06  5.5649782990500750e+06  6.2472036966614202e+06  8.3364380514729852e+06  6.7421963528652256e+06  5.0747821603863519e+06  4.6717108955614977e+06  8.5379027464067731e+06  4.7001087915294142e+06  5.0703467994004013e+06  7.1920380961655816e+06  8.1336961327826269e+06  7.1463196345915170e+06  4.7397232921181722e+06  8.5786149145917110e+06  4.3237459763491275e+06  6.1093480564644029e+06  6.2575724170115842e+06  6.8480096230533281e+06  5.4715747380787423e+06  4.5385205368651943e+06  5.9064494881308470e+06  5.4610703826951087e+06  4.4659211406318517e+06  4.6877864938358469e+06  5.3181738749679029e+06  5.4235913568174737e+06  8.7436471536674574e+06  8.3544566433677599e+06  4.9001990279834829e+06  8.6566620486683603e+06  8.0494822318576891e+06  8.0287054518120568e+06  8.3689929540059371e+06  6.6843851996860737e+06  5.8779989910353348e+06  7.1475708466582801e+06  7.7392691686382992e+06  5.6086408170899032e+06  8.3488966376137733e+06  4.6758593510845918e+06  6.7872823475078773e+06  5.3167656946611693e+06  4.5788165110140834e+06  7.3028070053855274e+06  8.2104120936415568e+06  6.8176140683394354e+06  7.6331447588964310e+06  6.5442601716427412e+06  7.8733162713835202e+06  4.8523878513990417e+06  4.9889276464116024e+06  4.9801262505795760e+06  8.3248689207955915e+06  7.3201411908987435e+06  5.1120376243454320e+06  8.4141292039437220e+06  6.5223900132318893e+06  8.5204333053119201e+06  5.2396869290287998e+06  8.7605966732995901e+06  8.7522664442771189e+06  5.3456061362901945e+06  6.2434438595919991e+06  8.7560090506028850e+06  8.8140253462797664e+06  8.4599893666313104e+06  8.4928398069432192e+06  7.3837701159568233e+06  4.6940903872172441e+06  8.4777658908607624e+06  8.1396995970176207e+06  5.4338658372386191e+06  6.2367507638280643e+06  6.0886999672049060e+06  8.8063562269322202e+06  8.7502121681803521e+06  6.5703726769090556e+06  8.6260906872897185e+06  8.6766275080281887e+06  8.7155400675961189e+06  8.8185761355975457e+06  6.0770646455921046e+06  4.9303150425891951e+06  7.3966336500996845e+06  4.9151996179091362e+06  6.1729776370198280e+06  5.1431329872945743e+06  7.2861024935482396e+06  8.9077335977066290e+06  7.0630562270536507e+06  7.4187280502742734e+06  8.4684473389228154e+06  6.3299354637344228e+06  5.1816925319806430e+06  7.4030080099147288e+06  4.3121947496089209e+06  5.1900849414258264e+06  8.4901862190127280e+06  8.4301157104686536e+06  6.6965622404368864e+06  8.9065722747261133e+06  4.4234942236225549e+06  8.5598699361809622e+06  7.1062831333451131e+06  5.3803290292911818e+06  4.6657884114396833e+06  4.4409550663041538e+06  7.7310452751561189e+06  8.5333576691606771e+06  8.4630767789925057e+06  7.4584902473266916e+06  8.7877648970358726e+06  6.7860299294007029e+06  5.0512731272793375e+06  5.0516607853313442e+06  5.0601341535832714e+06  8.7554248534714542e+06  8.7681927049820200e+06  8.7733494962456394e+06  8.1120796862524571e+06  8.3997686871961188e+06  8.7675064887110814e+06  8.6720486729809605e+06  7.1274507885662662e+06  8.9347407492859513e+06  8.9326077116948701e+06  6.4506851032383479e+06  5.1745421025233679e+06  6.7252809511065017e+06  8.5752407755983099e+06  6.4413755195046207e+06  6.8849958249336565e+06  8.9135713461879957e+06  6.6298442346953880e+06  7.8428914897634936e+06  5.4711438529994395e+06  5.4587778362405552e+06  5.3914396798382672e+06  5.5301749741589455e+06  8.5150544869668353e+06  6.2343268971595829e+06  6.2671675169170946e+06  6.1973223335082363e+06  6.2600730210823230e+06  6.1319385263241930e+06  5.3673672889461592e+06  5.2653346390916323e+06  6.2498395362791643e+06  5.3417146391726350e+06  7.4836331128137233e+06  7.4825457894836385e+06  8.9266164684926476e+06  7.2679214505878231e+06  6.9186042807863131e+06  6.1976204243776193e+06  6.1205903720337898e+06  6.2000645132472515e+06  6.3842695757123576e+06  6.2152896450663684e+06  6.3351504764720555e+06  6.6683797499180585e+06  6.3953128027290534e+06  6.5528437885872554e+06  6.8581436099031968e+06  6.7070128847764814e+06  5.8513924443009980e+06  6.2150178488705736e+06  4.6165590955539076e+06  4.7131358203835906e+06  4.5721432689800980e+06  4.4627837350460244e+06  4.4801533663674472e+06  4.3775189544500997e+06  4.4208472877093693e+06  4.3786417762082610e+06  4.3849103189359233e+06  4.4613833367811823e+06  5.2352478405985441e+06  5.2169036725618383e+06  5.2142339703528713e+06  5.1942887563327942e+06  5.1991505166290337e+06  5.1948243406134937e+06  5.1790472241015602e+06  5.1837703079635594e+06  5.2168690321669476e+06  5.1838897128406139e+06  5.2021627773338147e+06  5.1972328876935188e+06  5.2384497288020104e+06  5.3257991055675494e+06  5.2652616849974543e+06  4.5514612998793507e+06  4.5767347130040294e+06  4.5838758228741633e+06  4.6206456267046584e+06  7.3371911639795350e+06  7.0847664168909229e+06  6.9219709886221029e+06  7.1504802003812948e+06  7.8730521542803450e+06  8.2383050109552396e+06  8.0650210359745529e+06  8.2319323471984509e+06  5.0071328331363518e+06  4.5905747529348806e+06  4.6007942133109169e+06  4.8012207515579900e+06  4.7093856672597704e+06  4.4912376919875983e+06  4.5864427717942363e+06  4.5955369385286802e+06  4.4282804445454655e+06  4.6943158762192614e+06  5.8430345085881343e+06  5.8422724695714498e+06  5.0662600913099758e+06  5.3804337888039090e+06  5.3957795288867811e+06  8.0580750998627581e+06  7.8185834237073110e+06  6.2449445720001757e+06  6.1574305273815384e+06  6.5618335969359977e+06  5.9594248400043985e+06  6.5596488296811525e+06  6.4257589672922734e+06  6.5626071704292130e+06  6.9782216641507782e+06  6.7960873929328723e+06  4.8232124186650487e+06  5.0748590382460579e+06  5.2852913583598016e+06  4.8015260433213776e+06  4.2675034792963099e+06  4.3910814494174672e+06  4.4626429588005049e+06  4.2092250000837622e+06  4.2660310997541361e+06  4.4039347509111790e+06  4.3423833503204370e+06  7.9038685224206336e+06  8.2954116161960447e+06  8.0789582244814700e+06  8.3199267726909984e+06  8.5281435589208864e+06  7.4877004589628289e+06  7.0363268445966030e+06  7.4465575410637036e+06  7.2812066563503314e+06  4.8698923609261159e+06  5.2744496033195425e+06  5.3893062595821302e+06  4.8598781326614097e+06  7.7341632746282080e+06  7.5070410632398501e+06  7.4824066494786013e+06  7.2972587019498497e+06  4.8959254371367199e+06  5.0790362230271045e+06  6.2075390907598883e+06  6.1900218354702629e+06  5.8628566989170238e+06  7.6754910247099726e+06  7.3998948053960651e+06  7.8464428282309184e+06  7.4772912171717342e+06  5.2096849019948477e+06  4.8363523140290566e+06  4.7680834968395755e+06  4.9672996051323134e+06  4.9632046160060661e+06  5.1315075769682368e+06  4.9342615828389283e+06  4.9505576047371933e+06  4.7157748011228824e+06  4.8341688521062853e+06  4.9650303251956291e+06  5.0049282742819088e+06  4.7426245740430849e+06  4.7086947935974970e+06  5.1158151525372099e+06  4.5436652973440168e+06  4.2326143008141704e+06  4.3800043185453760e+06  4.4858364076713845e+06  4.4619986208715402e+06  4.2754232453952357e+06  4.3768000558095854e+06  5.4124544097578432e+06  5.9296300409227833e+06  5.4935212696740972e+06  5.2551159326137975e+06  4.6024030710456148e+06  4.6275041359627126e+06  4.4000665423755543e+06  4.5100700623079324e+06  4.4366325976224048e+06  4.8865951037718384e+06  4.4460461880064439e+06  4.7572479503887398e+06  4.6826147351690056e+06  4.8009437151906490e+06  4.5471109772522403e+06  6.8955912093591793e+06  6.7626908773774225e+06  7.1500533748122985e+06  7.1239294816704914e+06  7.6359394210563367e+06  4.6113258949581375e+06  4.5927566207379485e+06  7.5137107051681867e+06  6.5579579056748627e+06  5.8461406624645814e+06  5.8806180279285777e+06  6.3774430091008656e+06  7.3698083538890351e+06  7.1402576480365880e+06  6.7901366380771864e+06  6.7814556640660232e+06  6.1834201525965845e+06  5.8040125476689385e+06  4.2773519613826293e+06  4.2827384326345222e+06  4.3434913676159000e+06  5.8499749212637767e+06  6.2876893056738330e+06  8.2554024841708168e+06  8.3979287129468620e+06  7.7876430001828019e+06  8.1770152602795949e+06  7.8412042923333971e+06  7.8336000625134027e+06  7.3331759567427225e+06  7.3076352025579950e+06  5.1018789619283406e+06  5.1129736571280090e+06  5.8288710954503845e+06  6.4308550935069118e+06  4.9705813136159694e+06  5.0944871648397865e+06  5.1315820726240175e+06  4.7210458430809816e+06  4.9645270087983590e+06  5.0555605662355004e+06  5.0146646989543894e+06  4.6271457634012261e+06  5.8380154653186630e+06  6.1532640778891556e+06  6.2924846879651966e+06  6.3445039032109873e+06  6.4532390708372025e+06  6.8279514791505421e+06  6.6782557180469660e+06  5.2381441998450300e+06  4.6982354046269068e+06  4.4841090342186792e+06  4.6980258228045776e+06  4.6249883250403963e+06  4.5404291440332085e+06  5.3608348854230782e+06  5.1937954825826380e+06  4.8022425519396123e+06  8.1996795282801604e+06  5.0993751451536184e+06  4.7357652871123822e+06  6.6810129085215591e+06  7.0767911198421475e+06  7.4813049976972416e+06  7.2942146118944678e+06  5.1245228256522920e+06  5.2023754459916027e+06  4.5637926469010171e+06  6.1980737065569963e+06  5.1481227287932197e+06  6.4856258015080234e+06  4.3220366088552978e+06  4.3568535882800976e+06  6.5313794686578559e+06  4.5392528472960107e+06  7.2452606985579040e+06  4.6392569268141007e+06  4.5055221583100520e+06  4.5599023489981694e+06  4.4914957174005443e+06  4.6363350566965220e+06  6.4912722995658424e+06  4.2517266327544786e+06  4.3508900304212701e+06  4.2952301406241264e+06  8.1923019654310597e+06  5.7354852243277421e+06  5.0092683789430531e+06  5.0042902997902203e+06  5.1134559046101226e+06  4.9350138303830996e+06  7.4952075618932117e+06  7.5629295925253555e+06  4.7888065498088989e+06  4.8625259757918045e+06  4.6521108954617325e+06  4.6517106297562569e+06  4.2799672239360148e+06  5.3161444758499777e+06  6.2334002240132447e+06  6.4012686360115958e+06  6.0513227146734232e+06  6.4658025546333538e+06  4.2275017412871094e+06  4.3391063625410311e+06  4.2730336201782301e+06  4.3028595454433328e+06  7.4631238800442573e+06  4.6293138648540350e+06  4.6398336233391529e+06  4.6974074399843803e+06  4.8895309382693144e+06  4.7767652392400149e+06  4.8798541883931188e+06  4.8414725631015031e+06  4.2887709857263016e+06  4.3660189584502811e+06  4.2969305830470212e+06  5.2204621479221331e+06  7.9666576975810742e+06  8.0539294648914300e+06  8.1469392286383100e+06  6.6514620502249524e+06  7.2272402938042274e+06  4.8640219376570117e+06  4.5794252544284789e+06  4.5156382171444558e+06  4.6491115797154130e+06  6.9490560387528744e+06  6.4879042050089762e+06  6.6143255773235857e+06  4.7660749878344405e+06  4.7724018033255180e+06  4.8021167965487903e+06  4.9677839248739947e+06  5.1141525500396509e+06  5.0166094830496376e+06  4.8478769714296432e+06  7.2006072098167948e+06  5.1627068173780255e+06  5.1136130192310847e+06  5.1421432667770302e+06  6.4421366380136441e+06  6.3904318673304450e+06  6.4085109545680899e+06  4.3350782479654383e+06  4.3972239628591221e+06  4.4768481263123425e+06  4.4349152659754101e+06  5.1790632620557677e+06  5.1375314751714421e+06  6.5905379381488059e+06  6.7427536494225999e+06  6.6632806500911871e+06  6.5440255009093890e+06  6.5597393996403860e+06  6.5784195982019538e+06  6.5182439487582352e+06  4.5554746195633933e+06  5.1682617195292460e+06  4.5394348815744380e+06  7.4071417599740615e+06  4.6888367284220960e+06  4.6560265517767081e+06  4.6979684840372857e+06  4.4466632921744809e+06  4.6640759072136562e+06  4.5881298833542187e+06  4.3944821269865334e+06  4.4255968235475468e+06  5.2134702959008049e+06  5.0209426312376289e+06  5.2044162071404625e+06  6.3992952517076302e+06  6.5543361719009206e+06  4.8636758424826097e+06  4.9812984460356878e+06  4.2110351332719326e+06  4.2347908151789652e+06  4.3979775976127172e+06  4.2048123154388806e+06  4.3286839553322131e+06  4.2561775100913579e+06  4.4593926515088640e+06  8.1698473348772377e+06  4.9459270946056861e+06  5.1463716322714621e+06  4.9734431676864112e+06  7.3878326535085551e+06  7.4150309287509099e+06  7.3011739707447579e+06  4.8578146987099536e+06  5.0932346810022620e+06  4.8430666066537658e+06  4.4489658171652667e+06  5.1611161345342305e+06  5.2355284722248241e+06  4.3414476517472472e+06  4.3840469374551456e+06  7.0247236132099451e+06  6.9865696603589570e+06  7.1132902338177357e+06  4.3078977783844313e+06  5.1232993824753575e+06  </DataArray> 
</PointData> 
</Piece>
</UnstructuredGrid>
</VTKFile>