<?xml version="1.0"?>
<VTKFile type="UnstructuredGrid"  version="0.1"  >
<UnstructuredGrid>
<Piece  NumberOfPoints="784" NumberOfCells="1320">
<Points>
<DataArray  type="Float64"  NumberOfComponents="3"  format="ascii">266913.131276 586512.314988 0  266738.13716 587762.325998 0  266363.132677 589012.328643 0  266175.641078 590169.601714 0  265666.575631 591040.7699119999 0  264875.64001 591687.766419 0  264900.636161 591845.049083 0  266088.14152 592012.3229499999 0  265561.959259 592661.17101 0  264288.136855 593037.368683 0  263865.194033 593999.8486949999 0  263850.641856 593236.729596 0  263625.634872 592756.525286 0  262689.574249 593299.848918 0  262475.636737 594003.0907310001 0  261934.554452 594340.929792 0  261725.631329 594932.094409 0  261729.256443 595728.498809 0  262138.136044 595012.330523 0  262288.141035 596262.333669 0  261488.994028 597511.480605 0  261234.15567 598316.338928 0  260815.635063 599014.863821 0  261400.643658 599389.7367680001 0  261322.963374 600022.185065 0  261119.455248 600931.061306 0  261607.436504 601293.0629359999 0  260807.446929 602089.899812 0  260025.642878 602988.868697 0  259613.135827 603937.3854499999 0  259050.643123 604100.987861 0  258411.880065 603988.6335979999 0  257764.357469 604449.872569 0  257971.239668 605320.429125 0  258041.396867 605740.635381 0  257188.143339 606987.394312 0  256038.141198 608112.3554550001 0  254788.141633 609087.4026939999 0  253588.140656 609812.362881 0  252338.135706 609737.4048949999 0  251088.138116 609787.404055 0  249963.12851 610287.399466 0  248613.130524 610462.365857 0  247363.132198 610687.407659 0  246113.130532 610837.411551 0  245832.347438 610918.209918 0  245016.946433 610958.5639439999 0  244313.129646 610762.372259 0  244400.622144 611378.093316 0  243939.669208 612460.8930899999 0  242960.649733 611984.892792 0  242170.381438 611919.647351 0  241888.122919 611112.375656 0  241393.380757 610467.6456149999 0  240594.157528 611306.369822 0  240525.621947 610804.648112 0  240363.123632 610512.3745050001 0  239113.123247 610262.374278 0  239813.12126 609037.412459 0  240588.122952 607812.368199 0  241013.119545 606625.9534560001 0  241454.373249 605724.888025 0  242238.120107 604687.3993 0  243088.121248 603462.362766 0  242860.319451 603007.3932640001 0  241563.116617 603812.361344 0  241778.400913 604327.642217 0  242059.837234 604824.879102 0  241475.620201 604923.2402390001 0  241462.182234 605449.881372 0  240906.219606 605674.888222 0  240241.856192 606891.125066 0  239891.734044 607841.012479 0  239048.653431 608724.889805 0  238118.054545 608974.895967 0  238888.111029 607337.406468 0  239738.119992 606212.362729 0  240288.12044 605687.4075229999 0  240380.212307 604729.521696 0  239347.309632 604603.204501 0  238888.112036 604387.408787 0  237913.11173 604687.401386 0  236784.172023 604499.882783 0  236883.408793 603717.08334 0  236154.933927 603595.565605 0  235688.103943 602912.369264 0  235763.108033 601662.366516 0  236363.110805 600412.35884 0  236738.107995 599162.356577 0  236525.607944 598482.2412899999 0  236138.109208 599362.357613 0  235725.063048 600325.4466510001 0  235091.948926 601408.5220979999 0  235188.10921 600312.366344 0  234375.602405 600833.9674270001 0  234663.109308 599912.358011 0  234138.105122 600062.365644 0  233955.307245 599029.561063 0  233338.103791 598387.401556 0  233988.09795 597862.356384 0  235138.101489 596637.3947750001 0  235563.1039 595387.392428 0  236513.103639 594212.356312 0  237163.10684 592987.3929869999 0  238313.103031 591862.3515540001 0  239513.107028 590812.3512640001 0  240638.102135 589787.387271 0  241463.109549 588587.378486 0  242294.489816 587443.735215 0  242913.101099 586512.341804 0  243544.066915 585474.859604 0  243040.448415 585184.975583 0  242438.10214 585337.38015 0  241313.102353 586562.339499 0  240538.107104 587787.382449 0  240114.641085 588588.939407 0  239388.100256 589437.382238 0  238188.104456 590512.346358 0  236938.100507 591362.349798 0  235813.10453 592537.396388 0  234864.502938 593178.7753880001 0  234463.097651 592862.357267 0  235113.0965 591662.3545979999 0  235713.101522 590412.346099 0  235777.688431 589976.7582779999 0  234943.583145 590706.265132 0  234462.482256 591490.2841159999 0  233801.497784 592112.940187 0  233388.099101 591787.394208 0  234013.093099 590437.393065 0  234776.217248 587148.7548100001 0  235163.093726 586562.3486189999 0  235313.098918 585483.229012 0  235250.59732 584662.298153 0  235588.093896 583337.379493 0  236329.432041 582199.858992 0  237188.096234 581462.3349939999 0  237463.088521 580212.335511 0  238350.592558 579057.652616 0  238591.415797 578574.847681 0  238313.094106 577612.328905 0  239229.696732 577695.769664 0  240195.161018 577513.008613 0  240614.996733 577149.8518770001 0  240663.091715 577412.332622 0  240288.092486 578662.334085 0  239942.357258 579508.095811 0  240438.100019 580212.3334220001 0  241338.095553 580387.375355 0  241238.099828 579137.369157 0  241788.097003 577887.370889 0  241983.554649 577241.9220939999 0  242054.178239 576927.8105029999 0  242588.100699 575737.366175 0  243149.324833 574898.583978 0  243695.278626 573919.517981 0  244268.494418 573724.8454239999 0  244995.134063 573930.2767810001 0  245417.314363 573391.601898 0  243450.599125 571859.479773 0  245776.797908 572599.8353060001 0  246779.639852 572973.285167 0  248034.741935 573186.082054 0  249413.10651 573162.3205520001 0  250496.922226 573271.1521899999 0  251613.105126 573237.3551319999 0  252421.824577 572846.032906 0  253256.245022 572580.4733130001 0  253739.471933 571960.9547369999 0  254174.511864 572149.8346569999 0  254484.944333 571684.194807 0  254384.108649 570891.346712 0  254344.002752 570218.26407 0  255025.609604 570829.0294979999 0  255715.005913 570489.264586 0  256218.846343 570774.828355 0  256834.349083 570508.5908 0  257390.092515 570014.308325 0  257624.431042 568493.478911 0  259355.811717 569380.021819 0  260033.372814 569617.066669 0  262679.741751 570320.699974 0  263289.115756 569524.817815 0  263463.114338 570512.301061 0  264638.198419 570687.3443539999 0  265058.220065 571334.378467 0  265447.561421 572077.90485 0  265488.125257 573137.3446020001 0  265131.937715 573963.293593 0  265432.389648 575093.068786 0  265638.122314 576338.029955 0  265750.630817 577371.8281319999 0  265738.570663 578561.9098850001 0  265875.630866 579139.630549 0  266213.129247 579862.311842 0  266563.130472 581112.314509 0  266238.135356 582362.310259 0  265938.12863 583612.320897 0  265738.131342 584762.3210189999 0  266875.638633 585365.358768 0  264018.7239399826 593650.4646671159 0  262236.3944351029 595831.1252656333 0  241846.246678 605206.1436625 0  240200.622106 608424.8903290001 0  240943.4862974102 610939.7757535663 0  236550.6094 599787.3577085 0  238528.1212051503 608102.9081793013 0  244413.4891967989 572609.5960859474 0  236382.0474488751 598808.3067022427 0  235369.601910944 600933.5380148316 0  235413.099011 591037.3503485 0  235446.2251831186 590266.6553871984 0  240475.5921005 578037.3333535 0  240413.173949154 577324.4280286073 0  240574.037899 606283.0066440001 0  263857.9179445 593618.2891454998 0  264153.4303974913 593343.916675058 0  242042.1833925 604946.7714812499 0  241650.3099635 605465.51584375 0  244613.6985165 572229.6575395 0  236631.8579695 598822.2989335 0  235140.029068 600860.444221 0  241767.7287175 604874.0596705 0  242140.15174975 604817.0853906251 0  234781.8558075 600573.1668855001 0  242091.167571125 604881.9284359375 0  234519.3558565 600373.162719 0  254604.8337712102 583989.0014118921 0  250699.5846056537 594617.3297041012 0  250540.4796469513 602258.2940568649 0  248483.7490186612 580334.7345534252 0  258549.2190328319 577893.951823392 0  257067.0067473103 590016.5327808241 0  243285.0921999099 596333.923437875 0  248333.1386145258 589098.0389905117 0  256142.8445072741 595883.3911551933 0  260245.1368072523 583315.2785712298 0  253472.3380211276 578932.2908163272 0  246432.3347504817 599884.5019511909 0  261555.9240922556 588041.186709004 0  247293.1100123104 605823.8307887657 0  246458.2798550911 593168.8646574575 0  252840.0183145193 588226.5564648228 0  249828.2874404451 584740.7888937403 0  255409.5660975206 600458.8956828594 0  260819.9733392385 574219.403683011 0  252584.2262054711 605722.6603825617 0  254049.8830611471 592547.4852571967 0  250015.4356193061 598425.2225922942 0  245872.072249477 577604.9761853142 0  262002.1583249522 579753.4663046852 0  257732.6630933878 586227.970805314 0  250242.5556457866 577017.3316409125 0  244921.6453001869 581816.6358421432 0  256520.3890639471 580904.824006648 0  240779.0970645865 599524.6679555867 0  257100.1829219198 574459.5922545703 0  239912.2630002034 595231.1172704464 0  244703.0875078634 590068.6945953515 0  242549.5490268674 592874.3693043783 0  251586.0465921376 581796.2215047925 0  246643.189997516 596527.447801719 0  251049.7658069622 591057.6752245198 0  253014.5731561695 596998.6601086652 0  238680.2197353724 584542.2309791476 0  259715.365803504 591937.1938619445 0  254097.157218761 575731.4494927844 0  246806.6408589328 586139.0877599345 0  246136.1179750556 602959.471719323 0  253520.7033332401 602835.180253843 0  244125.4295793909 607538.9817227355 0  252546.8895354472 599881.3279113505 0  258289.0983523553 600397.640191779 0  247518.7952199645 583037.3718217331 0  263140.3959879661 582529.2228421422 0  262894.8586894067 585442.3590432997 0  256968.6320599076 593040.7691844478 0  243573.0187527719 600218.2795730785 0  258888.5766127351 595139.7745218446 0  262588.7569809347 576734.8569237856 0  259318.4257992262 580601.2540325444 0  249963.3812725965 607065.7205847671 0  257494.5307999607 583482.5893534871 0  258906.4757205145 572278.8089438241 0  237751.446593475 587300.5805003279 0  255142.4708720699 604956.7580261135 0  258485.4978753244 597756.9250383095 0  255516.7820591553 587791.39641967 0  239758.4692108706 601926.8203218657 0  255873.0092222999 577739.5085867504
[...]
<PointData  Scalars="f_32-0"> 
<DataArray  type="Float64"  Name="f_32-0"  format="ascii">2.3468892862173408e+07  2.3558634518332608e+07  2.3666359920885716e+07  2.3755418372934174e+07  2.3817823923446815e+07  2.3910529461653162e+07  2.3939761881705713e+07  2.3959546162525162e+07  2.3960546595266555e+07  2.3986215094636716e+07  2.3995471614487965e+07  2.3994706653803848e+07  2.4018808693347078e+07  2.4197852032435119e+07  2.4319955819969580e+07  2.4434921606127538e+07  2.4598337726903021e+07  2.4788189473806694e+07  2.4812185463086486e+07  2.4841298483594548e+07  2.4996054198851380e+07  2.5121138054319434e+07  2.5268239444251709e+07  2.5350923762804307e+07  2.5390878067037165e+07  2.5478332571773373e+07  2.5504121227154322e+07  2.5549282542331662e+07  2.5642825668838955e+07  2.5709190397174530e+07  2.5729853717854317e+07  2.5788640673915274e+07  2.5940454626161370e+07  2.6066537533498302e+07  2.6089515771748733e+07  2.6188755028583176e+07  2.6297556208223190e+07  2.6393583027980946e+07  2.6455976747554909e+07  2.6510129341865376e+07  2.6589897367688917e+07  2.6667222304201625e+07  2.6740570379554484e+07  2.6809544290656168e+07  2.6873281399638288e+07  2.6886743514615353e+07  2.6920885375532717e+07  2.6962483388446197e+07  2.6992445333295684e+07  2.7005571415069137e+07  2.7008635850255404e+07  2.7011509250423901e+07  2.7011381269275002e+07  2.7016966163695708e+07  2.7028160112854514e+07  2.7027333413523041e+07  2.7027474516631611e+07  2.7031626746915150e+07  2.7020092044533268e+07  2.6977981450349957e+07  2.6922079274276305e+07  2.6869827307741258e+07  2.6776422469017949e+07  2.6610270844984546e+07  2.6567839161741067e+07  2.6684998344799437e+07  2.6727788353399303e+07  2.6739479200458739e+07  2.6751666328357253e+07  2.6771074316475034e+07  2.6798820202953663e+07  2.6900073234562095e+07  2.6932846754742607e+07  2.6948193157945570e+07  2.6951276733411424e+07  2.6934678528521195e+07  2.6885099521952454e+07  2.6826846363726232e+07  2.6745697661557775e+07  2.6724703453293115e+07  2.6726090781596564e+07  2.6732038696324177e+07  2.6733712069109365e+07  2.6729328186804570e+07  2.6726543868660599e+07  2.6722459142700553e+07  2.6705570593980785e+07  2.6660787842696667e+07  2.6589487401278213e+07  2.6563963906581610e+07  2.6601203847597141e+07  2.6619516223134842e+07  2.6625587417291466e+07  2.6620630576392982e+07  2.6622835744178925e+07  2.6617622746762998e+07  2.6616554013629448e+07  2.6609180400683876e+07  2.6605539115293004e+07  2.6596825747289978e+07  2.6523971932035103e+07  2.6439432338244479e+07  2.6315646734674223e+07  2.6178792390973758e+07  2.5990042018509135e+07  2.5730752085270811e+07  2.5412295945005815e+07  2.5084478338089000e+07  2.4782808796169665e+07  2.4530765286407225e+07  2.4199157313888669e+07  2.4051051846975300e+07  2.4041730996703096e+07  2.4200109748849053e+07  2.4348405028906338e+07  2.4413339586750854e+07  2.4472571198546980e+07  2.4540060132506561e+07  2.4587978249233268e+07  2.4621589343203597e+07  2.4629085047311909e+07  2.4629159139430445e+07  2.4617640724883128e+07  2.4586924359113168e+07  2.4576143360695571e+07  2.4599039465428390e+07  2.4613569964212183e+07  2.4618202622116864e+07  2.4618209144440085e+07  2.4603180919286400e+07  2.4507116980071981e+07  2.4475035525845904e+07  2.4419007909505408e+07  2.4385406348883510e+07  2.4338234037864126e+07  2.4287876614419144e+07  2.4233066477688871e+07  2.4194605338726584e+07  2.4182623136226058e+07  2.4187395166630130e+07  2.4192738371550996e+07  2.4192121418159086e+07  2.4194179326563802e+07  2.4195276893049631e+07  2.4195141673520647e+07  2.4186169513580140e+07  2.4154740462698910e+07  2.4062634502980102e+07  2.3860542045951448e+07  2.3687450821325567e+07  2.3576762321469318e+07  2.3526350213335458e+07  2.3507559742333107e+07  2.3441770576221239e+07  2.3398196223769400e+07  2.3364668028426040e+07  2.3353212650172368e+07  2.3316759100773953e+07  2.3278836174399525e+07  2.3283790935499810e+07  2.3269537821629845e+07  2.3232748784308366e+07  2.3148457847711205e+07  2.3042969142609362e+07  2.2956073647753112e+07  2.2853431356466174e+07  2.2781537182988621e+07  2.2723499060797881e+07  2.2694198765364286e+07  2.2679237189232450e+07  2.2654418809632294e+07  2.2644707822969817e+07  2.2644225657044910e+07  2.2640931259214491e+07  2.2631196227439459e+07  2.2621730473179419e+07  2.2604614789076559e+07  2.2590030172522139e+07  2.2583628622501988e+07  2.2576926340986613e+07  2.2571854355629388e+07  2.2557071743904125e+07  2.2555908364595141e+07  2.2555612399649620e+07  2.2553141944192000e+07  2.2551956761416119e+07  2.2550495071920119e+07  2.2548193471706081e+07  2.2543219865702987e+07  2.2532520174576912e+07  2.2520201950138982e+07  2.2519346546439145e+07  2.2557905021466106e+07  2.2606607794541188e+07  2.2680202242623940e+07  2.2788133292969681e+07  2.2905220624305394e+07  2.3067681622460861e+07  2.3276741978431202e+07  2.3406047351431906e+07  2.3995124426945217e+07  2.4820841453785345e+07  2.6828971896376643e+07  2.7003730569569692e+07  2.7026800729733393e+07  2.6627476968737431e+07  2.6946893400963180e+07  2.3280944512147151e+07  2.6581435679367129e+07  2.6624375456086993e+07  2.4604524103906900e+07  2.4584533642627425e+07  2.4192914805897370e+07  2.4195047807692513e+07  2.6858061058518611e+07  2.3995108118457537e+07  2.3993980284817956e+07  2.6804142157747421e+07  2.6851137962176748e+07  2.3280947036240052e+07  2.6570395094641358e+07  2.6624378619876646e+07  2.6741334788418695e+07  2.6790720800688643e+07  2.6621912741379727e+07  2.6797523138511669e+07  2.6621882363028932e+07  2.3099511482443016e+07  2.4873851689503159e+07  2.5982904080957651e+07  2.3237883681741633e+07  2.2490075765423104e+07  2.3665673391692679e+07  2.5954935868242912e+07  2.4263135349916808e+07  2.4860774598905247e+07  2.2966095672124717e+07  2.2776143904257536e+07  2.5946400669425804e+07  2.3571799685861491e+07  2.6595511629943211e+07  2.5058787313942686e+07  2.3568438587915163e+07  2.3655354566003852e+07  2.5454261391294073e+07  2.2530480140326239e+07  2.6308141588957179e+07  2.4329970708352596e+07  2.5411519726563111e+07  2.3293600957951963e+07  2.2548808698355213e+07  2.3125203853140377e+07  2.2985931694157157e+07  2.3635533489485357e+07  2.2808058423127610e+07  2.6462952555370163e+07  2.2583180919911280e+07  2.6168979517437465e+07  2.4812452572210997e+07  2.5579005483495317e+07  2.3209956993601207e+07  2.5571483654171839e+07  2.4201434119225018e+07  2.5076023904621970e+07  2.4257218229773030e+07  2.4123314368955240e+07  2.2668681574691530e+07  2.4109607256387684e+07  2.6361081286126528e+07  2.5927101241104122e+07  2.6866111253168844e+07  2.5500682048064873e+07  2.5449394582051061e+07  2.3617701217829216e+07  2.2885726489255574e+07  2.3286795126914266e+07  2.4329852357169811e+07  2.6310975297285032e+07  2.4705915417890124e+07  2.2494384643502377e+07  2.2676283184861738e+07  2.6544845947183169e+07  2.2970007511345670e+07  2.2576341085309140e+07  2.4440556786932278e+07  2.6115794696005285e+07  2.5107933980569717e+07  2.3246002274475664e+07  2.6647341804383330e+07  2.2591955965059910e+07  2.3909701828336846e+07  2.3925494991463218e+07  2.4699261277769826e+07  2.3533234098130751e+07  2.2982983405818772e+07  2.3569976354725685e+07  2.3758120849317137e+07  2.3049278034149650e+07  2.3153650253560714e+07  2.3256072923376303e+07  2.3480749973007992e+07  2.6788110135777097e+07  2.6313830581829794e+07  2.3355234001746450e+07  2.6669078924695786e+07  2.5969730512253191e+07  2.5790230327062484e+07  2.6432498604046170e+07  2.4139826504444458e+07  2.3923738423355695e+07  2.5127005904425614e+07  2.5707075575368144e+07  2.3835546991361275e+07  2.6243890774463028e+07  2.3238769822594918e+07  2.4765144776151501e+07  2.2550917355986428e+07  2.3137047536630243e+07  2.5140188812561814e+07  2.6239056916825403e+07  2.4626868212373093e+07  2.5531754885207634e+07  2.4497111714838993e+07  2.5885356491520043e+07  2.2455883405870687e+07  2.3320852574830499e+07  2.3401973665433880e+07  2.6395247542601116e+07  2.5135924834861066e+07  2.2656657651370030e+07  2.6417275207950123e+07  2.4499330039433938e+07  2.6593299240244482e+07  2.2532745406351745e+07  2.6806100873633958e+07  2.6796437766684953e+07  2.3454569446087737e+07  2.3960231350184266e+07  2.6801520596237417e+07  2.6875498409587223e+07  2.6534508479386326e+07  2.6580582090821512e+07  2.4562891931375384e+07  2.2630112943492789e+07  2.6442365427222673e+07  2.6124884546897907e+07  2.3498535474841289e+07  2.3938420822181705e+07  2.3780089272563703e+07  2.6864406197917152e+07  2.6794378689894155e+07  2.4492160180807989e+07  2.6700423415440179e+07  2.6703478142917302e+07  2.6750818845109873e+07  2.6881676811201848e+07  2.3960468743656464e+07  2.3242972313805170e+07  2.4570617992723711e+07  2.2606198155799761e+07  2.3873611888177376e+07  2.2567278084486555e+07  2.4501408357834380e+07  2.6990749535946414e+07  2.4363622904033098e+07  2.4584930709326167e+07  2.6547033394278981e+07  2.3975847559511341e+07  2.2576279907341000e+07  2.4574924049967345e+07  2.2771165866892710e+07  2.3362053457927585e+07  2.6576786216864835e+07  2.6511099382808130e+07  2.4158946734101951e+07  2.6989350258124549e+07  2.3009113377786752e+07  2.6639843691000555e+07  2.5049101650596842e+07  2.2550866714617342e+07  2.2651492814011343e+07  2.2664546249494001e+07  2.5695470729154404e+07  2.6528598401497256e+07  2.6464689271117050e+07  2.5412246684000347e+07  2.6841262853213321e+07  2.4709281655679923e+07  2.3277374616620984e+07  2.3277268457944095e+07  2.2592660237958901e+07  2.6800915112575110e+07  2.6816880013330895e+07  2.6823281034250997e+07  2.6095771710205328e+07  2.6472811373636998e+07  2.6819432220966984e+07  2.6704630989490487e+07  2.4396973957347959e+07  2.7024285252845142e+07  2.7021639375190273e+07  2.4020153022644192e+07  2.2508326580335658e+07  2.4176699620795783e+07  2.6563801856194206e+07  2.4298173661406815e+07  2.4257907669847868e+07  2.6998084096333977e+07  2.4081080850455917e+07  2.5813027436322559e+07  2.3107693211162452e+07  2.3511253603632551e+07  2.3472639159884211e+07  2.3552049583054315e+07  2.6604966791036751e+07  2.3930549193227474e+07  2.3966517048606697e+07  2.3888697529631425e+07  2.3961852490890857e+07  2.3796486910115615e+07  2.2555195239038359e+07  2.2560957181736436e+07  2.4029487145305395e+07  2.3446250657569923e+07  2.4626795191748969e+07  2.4626074172297642e+07  2.7014195175523549e+07  2.5181472374780089e+07  2.4834771461184688e+07  2.4193509095899589e+07  2.4062934962925423e+07  2.4054781880481113e+07  2.4033800636452649e+07  2.4030325485754151e+07  2.4009099809331339e+07  2.4108607789882060e+07  2.4014015737137485e+07  2.4044971961649764e+07  2.4213720149167374e+07  2.4120907395468354e+07  2.3740892988318127e+07  2.3906574239973497e+07  2.3093839024661001e+07  2.3148961056907639e+07  2.3078564006347634e+07  2.3001965617787149e+07  2.3025447166482642e+07  2.2906355757319294e+07  2.2982467647005044e+07  2.2937697685652506e+07  2.2754760631366577e+07  2.2700474491890002e+07  2.2521617958569385e+07  2.2517627391412899e+07  2.2515836952259749e+07  2.2529902761478394e+07  2.2514452355776969e+07  2.2580132869889464e+07  2.2565406405038640e+07  2.2519761610937372e+07  2.2644707541900020e+07  2.2586819377709541e+07  2.2669425587630749e+07  2.2620735421648923e+07  2.2737455089434482e+07  2.2919379627312534e+07  2.2800721714855030e+07  2.3031316855956074e+07  2.2969887255513817e+07  2.3003519552818730e+07  2.3162431345356937e+07  2.5128764562429193e+07  2.4967471742693800e+07  2.4791268442271587e+07  2.4991964387038872e+07  2.5752654049343247e+07  2.6160997090633731e+07  2.5881338026857544e+07  2.6108948209760323e+07  2.3403913448471282e+07  2.3158461626118161e+07  2.3164813091864079e+07  2.3259721396307334e+07  2.2500413093414556e+07  2.2629071232306588e+07  2.2516603355298862e+07  2.2563123883489739e+07  2.2540946893235438e+07  2.2450947725634579e+07  2.3912752136096995e+07  2.3998746773138888e+07  2.3423289618090585e+07  2.3681198080681354e+07  2.3544746495713994e+07  2.6069320508677337e+07  2.5777789235254813e+07  2.4194936229107413e+07  2.4206233639442544e+07  2.4430614226036631e+07  2.4050622475106176e+07  2.4442491102400813e+07  2.4388730067047738e+07  2.4612807366016056e+07  2.4962684938311353e+07  2.4804934385147296e+07  2.2722287688972492e+07  2.2915308612004369e+07  2.3118780673516937e+07  2.2808778535443302e+07  2.2865079229059592e+07  2.2769842036091145e+07  2.2980770949947372e+07  2.2688023288514867e+07  2.2668150518882666e+07  2.2869031886677481e+07  2.2908931217208635e+07  2.5659158581915576e+07  2.6145857430792216e+07  2.5843035479201935e+07  2.6210882182230182e+07  2.6489711991603367e+07  2.5348062461278491e+07  2.4824353682069384e+07  2.5293437272743534e+07  2.5081465397377044e+07  2.3375324924974747e+07  2.3630408482461955e+07  2.3694749187734123e+07  2.3374819190125160e+07  2.5691172833312232e+07  2.5454061327576552e+07  2.5450928211820051e+07  2.5270753555191547e+07  2.2543240649814732e+07  2.2503249654697031e+07  2.4255170917084251e+07  2.4311698510798018e+07  2.4049546367512319e+07  2.5456923245040689e+07  2.5225021749074839e+07  2.5606612242894549e+07  2.5255931084090471e+07  2.3394952297203716e+07  2.3221390381920647e+07  2.3203564944493540e+07  2.3288998358939238e+07  2.3268787326421384e+07  2.3342954115822524e+07  2.2680789834254958e+07  2.2493449865024261e+07  2.2590601279853642e+07  2.2472646688687529e+07  2.2590156445291247e+07  2.2552343857076019e+07  2.3037647807639636e+07  2.3142677679135878e+07  2.3280944227363605e+07  2.3083587653533310e+07  2.2806965052811805e+07  2.2999819585884292e+07  2.3069050367436863e+07  2.3070751527975712e+07  2.2866011038009379e+07  2.2993058664402276e+07  2.3608821520202711e+07  2.3804526710062336e+07  2.3565251519803844e+07  2.3464692719805960e+07  2.2745060446047693e+07  2.2900630219759036e+07  2.2670381465734143e+07  2.2884279241559595e+07  2.2611323470958143e+07  2.2581535395066693e+07  2.2565383297332037e+07  2.2511263138535284e+07  2.2609061636929218e+07  2.2600786317241326e+07  2.2617959891867116e+07  2.4701443833758067e+07  2.4661248064820006e+07  2.4956910299683079e+07  2.4995982850258935e+07  2.5548719547494333e+07  2.3091262934392896e+07  2.3121651417499192e+07  2.5355100647248071e+07  2.4442947340117339e+07  2.3990604721348803e+07  2.3968401204104055e+07  2.4344707369874168e+07  2.5267936409126598e+07  2.5098764607380215e+07  2.4190891248556711e+07  2.4172617315184396e+07  2.4216947496136107e+07  2.3800102678731050e+07  2.2617735060692467e+07  2.2717370227550533e+07  2.2665578692440957e+07  2.4000152147681035e+07  2.4298023930661555e+07  2.6068789837027736e+07  2.6292799828965362e+07  2.5717859516045336e+07  2.6129148297624167e+07  2.5807593681142982e+07  2.5655560890663508e+07  2.5277970274974354e+07  2.5281751599621594e+07  2.3430052678968575e+07  2.2758422817267060e+07  2.4027873488241903e+07  2.4425455136609893e+07  2.2473229612191275e+07  2.2504442221078921e+07  2.2502771262373615e+07  2.2853860730329026e+07  2.3076800024488546e+07  2.3473649336265478e+07  2.3306616344040148e+07  2.3204677390660197e+07  2.3741203391764235e+07  2.3917640020238914e+07  2.3946381978250209e+07  2.3961811139631908e+07  2.3999453161828306e+07  2.4652509623708364e+07  2.4576328600817047e+07  2.3423475923358209e+07  2.3170128791086629e+07  2.3093653562651727e+07  2.3215654757677704e+07  2.3140587096783508e+07  2.3083114743394237e+07  2.3362404628799658e+07  2.3574685041103669e+07  2.3305453035591472e+07  2.6015896696045622e+07  2.3521702071126115e+07  2.3206296197461125e+07  2.4562717150221769e+07  2.4852973415756471e+07  2.5337400639911130e+07  2.5154391185541011e+07  2.2606934468937706e+07  2.2518748789543644e+07  2.2645099476295788e+07  2.3966934191691078e+07  2.2517236595505968e+07  2.4012666249076702e+07  2.2888977056049231e+07  2.2710454031922314e+07  2.4045461163909979e+07  2.3076608896732427e+07  2.5061156662192196e+07  2.2486342900243059e+07  2.2549694254095379e+07  2.2489520186280619e+07  2.2515040795426767e+07  2.2476745192976419e+07  2.4413681301569279e+07  2.2812326553622268e+07  2.2870906927387875e+07  2.2838830460670806e+07  2.5991001371689111e+07  2.3890384089351289e+07  2.3467397871024568e+07  2.3465529106435407e+07  2.3531144057316989e+07  2.2515411300030265e+07  2.5263868226873349e+07  2.5322759726507146e+07  2.2617996267564122e+07  2.2603552276512682e+07  2.3055027882810414e+07  2.3081632852089792e+07  2.2896266080177132e+07  2.3525245312346384e+07  2.4183240512171935e+07  2.4318997778114811e+07  2.4066908010230776e+07  2.4386292719781801e+07  2.2729842560548130e+07  2.2634553475149635e+07  2.2691968334954567e+07  2.2666590811673161e+07  2.5384174353408854e+07  2.2616989791543197e+07  2.2711254910582799e+07  2.2768322977449469e+07  2.3323327447234355e+07  2.3300039297156390e+07  2.3349375724493660e+07  2.3255750073245674e+07  2.2627234040135164e+07  2.2568805019820657e+07  2.2601055743660130e+07  2.3387998356122851e+07  2.5716627664651889e+07  2.5809001778483965e+07  2.5922884599024564e+07  2.4107428043753479e+07  2.5192374792785887e+07  2.3371262625651490e+07  2.3146232626856774e+07  2.3113224429277055e+07  2.3169727692068364e+07  2.4733850170815680e+07  2.4445794826167930e+07  2.4539066791283008e+07  2.2452025763261452e+07  2.2449115227953296e+07  2.2475160677450493e+07  2.3298364131622378e+07  2.3387452157561067e+07  2.3360182294942487e+07  2.3254944805217989e+07  2.4988197464412738e+07  2.2536400772614319e+07  2.2525744953947321e+07  2.2536397290404540e+07  2.4006300760099974e+07  2.3978289424991574e+07  2.3989489321115837e+07  2.2939579445148546e+07  2.3000276407785986e+07  2.3046419150911104e+07  2.2637127938134052e+07  2.2511303641855314e+07  2.2504562379851606e+07  2.4057946488562327e+07  2.4141284577310540e+07  2.4094975603464723e+07  2.4038862961119100e+07  2.4044054260534972e+07  2.4061050921982445e+07  2.4027820644335683e+07  2.3080142454762932e+07  2.2518575945294216e+07  2.3053753642813537e+07  2.5187001700408965e+07  2.3207249180625957e+07  2.3182202750245649e+07  2.2462887231300611e+07  2.2573444361255553e+07  2.2575099595700949e+07  2.2651243354320332e+07  2.2596474419621810e+07  2.2543194956454501e+07  2.3470083715220295e+07  2.3353807045586377e+07  2.3419965670848154e+07  2.4302779023199037e+07  2.4475460715423342e+07  2.2693625435096990e+07  2.2789404727531262e+07  2.2766317186877187e+07  2.2827878909878213e+07  2.2940641181668393e+07  2.2740774772895325e+07  2.2661633670793552e+07  2.2633337070524801e+07  2.3012971790885288e+07  2.5949940202791393e+07  2.3413993552134007e+07  2.3546191376425516e+07  2.3444849147783983e+07  2.5350121486675251e+07  2.5360911291909963e+07  2.5265128836009491e+07  2.3240749168255068e+07  2.3349481901376102e+07  2.3242032580503110e+07  2.3038297692532659e+07  2.3438431816710621e+07  2.3436281284400307e+07  2.2609917203709308e+07  2.2635486228418477e+07  2.4821279232222676e+07  2.4771564899119735e+07  2.4899204422652166e+07  2.2689479523199797e+07  2.2510362872505996e+07  </DataArray> 
</PointData> 
</Piece>
</UnstructuredGrid>
</VTKFile>