<?xml version="1.0"?>
<VTKFile type="UnstructuredGrid"  version="0.1"  >
<UnstructuredGrid>
<Piece  NumberOfPoints="784" NumberOfCells="1320">
<Points>
<DataArray  type="Float64"  NumberOfComponents="3"  format="ascii">266913.131276 586512.314988 0  266738.13716 587762.325998 0  266363.132677 589012.328643 0  266175.641078 590169.601714 0  265666.575631 591040.7699119999 0  264875.64001 591687.766419 0  264900.636161 591845.049083 0  266088.14152 592012.3229499999 0  265561.959259 592661.17101 0  264288.136855 593037.368683 0  263865.194033 593999.8486949999 0  263850.641856 593236.729596 0  263625.634872 592756.525286 0  262689.574249 593299.848918 0  262475.636737 594003.0907310001 0  261934.554452 594340.929792 0  261725.631329 594932.094409 0  261729.256443 595728.498809 0  262138.136044 595012.330523 0  262288.141035 596262.333669 0  261488.994028 597511.480605 0  261234.15567 598316.338928 0  260815.635063 599014.863821 0  261400.643658 599389.7367680001 0  261322.963374 600022.185065 0  261119.455248 600931.061306 0  261607.436504 601293.0629359999 0  260807.446929 602089.899812 0  260025.642878 602988.868697 0  259613.135827 603937.3854499999 0  259050.643123 604100.987861 0  258411.880065 603988.6335979999 0  257764.357469 604449.872569 0  257971.239668 605320.429125 0  258041.396867 605740.635381 0  257188.143339 606987.394312 0  256038.141198 608112.3554550001 0  254788.141633 609087.4026939999 0  253588.140656 609812.362881 0  252338.135706 609737.4048949999 0  251088.138116 609787.404055 0  249963.12851 610287.399466 0  248613.130524 610462.365857 0  247363.132198 610687.407659 0  246113.130532 610837.411551 0  245832.347438 610918.209918 0  245016.946433 610958.5639439999 0  244313.129646 610762.372259 0  244400.622144 611378.093316 0  243939.669208 612460.8930899999 0  242960.649733 611984.892792 0  242170.381438 611919.647351 0  241888.122919 611112.375656 0  241393.380757 610467.6456149999 0  240594.157528 611306.369822 0  240525.621947 610804.648112 0  240363.123632 610512.3745050001 0  239113.123247 610262.374278 0  239813.12126 609037.412459 0  240588.122952 607812.368199 0  241013.119545 606625.9534560001 0  241454.373249 605724.888025 0  242238.120107 604687.3993 0  243088.121248 603462.362766 0  242860.319451 603007.3932640001 0  241563.116617 603812.361344 0  241778.400913 604327.642217 0  242059.837234 604824.879102 0  241475.620201 604923.2402390001 0  241462.182234 605449.881372 0  240906.219606 605674.888222 0  240241.856192 606891.125066 0  239891.734044 607841.012479 0  239048.653431 608724.889805 0  238118.054545 608974.895967 0  238888.111029 607337.406468 0  239738.119992 606212.362729 0  240288.12044 605687.4075229999 0  240380.212307 604729.521696 0  239347.309632 604603.204501 0  238888.112036 604387.408787 0  237913.11173 604687.401386 0  236784.172023 604499.882783 0  236883.408793 603717.08334 0  236154.933927 603595.565605 0  235688.103943 602912.369264 0  235763.108033 601662.366516 0  236363.110805 600412.35884 0  236738.107995 599162.356577 0  236525.607944 598482.2412899999 0  236138.109208 599362.357613 0  235725.063048 600325.4466510001 0  235091.948926 601408.5220979999 0  235188.10921 600312.366344 0  234375.602405 600833.9674270001 0  234663.109308 599912.358011 0  234138.105122 600062.365644 0  233955.307245 599029.561063 0  233338.103791 598387.401556 0  233988.09795 597862.356384 0  235138.101489 596637.3947750001 0  235563.1039 595387.392428 0  236513.103639 594212.356312 0  237163.10684 592987.3929869999 0  238313.103031 591862.3515540001 0  239513.107028 590812.3512640001 0  240638.102135 589787.387271 0  241463.109549 588587.378486 0  242294.489816 587443.735215 0  242913.101099 586512.341804 0  243544.066915 585474.859604 0  243040.448415 585184.975583 0  242438.10214 585337.38015 0  241313.102353 586562.339499 0  240538.107104 587787.382449 0  240114.641085 588588.939407 0  239388.100256 589437.382238 0  238188.104456 590512.346358 0  236938.100507 591362.349798 0  235813.10453 592537.396388 0  234864.502938 593178.7753880001 0  234463.097651 592862.357267 0  235113.0965 591662.3545979999 0  235713.101522 590412.346099 0  235777.688431 589976.7582779999 0  234943.583145 590706.265132 0  234462.482256 591490.2841159999 0  233801.497784 592112.940187 0  233388.099101 591787.394208 0  234013.093099 590437.393065 0  234776.217248 587148.7548100001 0  235163.093726 586562.3486189999 0  235313.098918 585483.229012 0  235250.59732 584662.298153 0  235588.093896 583337.379493 0  236329.432041 582199.858992 0  237188.096234 581462.3349939999 0  237463.088521 580212.335511 0  238350.592558 579057.652616 0  238591.415797 578574.847681 0  238313.094106 577612.328905 0  239229.696732 577695.769664 0  240195.161018 577513.008613 0  240614.996733 577149.8518770001 0  240663.091715 577412.332622 0  240288.092486 578662.334085 0  239942.357258 579508.095811 0  240438.100019 580212.3334220001 0  241338.095553 580387.375355 0  241238.099828 579137.369157 0  241788.097003 577887.370889 0  241983.554649 577241.9220939999 0  242054.178239 576927.8105029999 0  242588.100699 575737.366175 0  243149.324833 574898.583978 0  243695.278626 573919.517981 0  244268.494418 573724.8454239999 0  244995.134063 573930.2767810001 0  245417.314363 573391.601898 0  243450.599125 571859.479773 0  245776.797908 572599.8353060001 0  246779.639852 572973.285167 0  248034.741935 573186.082054 0  249413.10651 573162.3205520001 0  250496.922226 573271.1521899999 0  251613.105126 573237.3551319999 0  252421.824577 572846.032906 0  253256.245022 572580.4733130001 0  253739.471933 571960.9547369999 0  254174.511864 572149.8346569999 0  254484.944333 571684.194807 0  254384.108649 570891.346712 0  254344.002752 570218.26407 0  255025.609604 570829.0294979999 0  255715.005913 570489.264586 0  256218.846343 570774.828355 0  256834.349083 570508.5908 0  257390.092515 570014.308325 0  257624.431042 568493.478911 0  259355.811717 569380.021819 0  260033.372814 569617.066669 0  262679.741751 570320.699974 0  263289.115756 569524.817815 0  263463.114338 570512.301061 0  264638.198419 570687.3443539999 0  265058.220065 571334.378467 0  265447.561421 572077.90485 0  265488.125257 573137.3446020001 0  265131.937715 573963.293593 0  265432.389648 575093.068786 0  265638.122314 576338.029955 0  265750.630817 577371.8281319999 0  265738.570663 578561.9098850001 0  265875.630866 579139.630549 0  266213.129247 579862.311842 0  266563.130472 581112.314509 0  266238.135356 582362.310259 0  265938.12863 583612.320897 0  265738.131342 584762.3210189999 0  266875.638633 585365.358768 0  264018.7239399826 593650.4646671159 0  262236.3944351029 595831.1252656333 0  241846.246678 605206.1436625 0  240200.622106 608424.8903290001 0  240943.4862974102 610939.7757535663 0  236550.6094 599787.3577085 0  238528.1212051503 608102.9081793013 0  244413.4891967989 572609.5960859474 0  236382.0474488751 598808.3067022427 0  235369.601910944 600933.5380148316 0  235413.099011 591037.3503485 0  235446.2251831186 590266.6553871984 0  240475.5921005 578037.3333535 0  240413.173949154 577324.4280286073 0  240574.037899 606283.0066440001 0  263857.9179445 593618.2891454998 0  264153.4303974913 593343.916675058 0  242042.1833925 604946.7714812499 0  241650.3099635 605465.51584375 0  244613.6985165 572229.6575395 0  236631.8579695 598822.2989335 0  235140.029068 600860.444221 0  241767.7287175 604874.0596705 0  242140.15174975 604817.0853906251 0  234781.8558075 600573.1668855001 0  242091.167571125 604881.9284359375 0  234519.3558565 600373.162719 0  254604.8337712102 583989.0014118921 0  250699.5846056537 594617.3297041012 0  250540.4796469513 602258.2940568649 0  248483.7490186612 580334.7345534252 0  258549.2190328319 577893.951823392 0  257067.0067473103 590016.5327808241 0  243285.0921999099 596333.923437875 0  248333.1386145258 589098.0389905117 0  256142.8445072741 595883.3911551933 0  260245.1368072523 583315.2785712298 0  253472.3380211276 578932.2908163272 0  246432.3347504817 599884.5019511909 0  261555.9240922556 588041.186709004 0  247293.1100123104 605823.8307887657 0  246458.2798550911 593168.8646574575 0  252840.0183145193 588226.5564648228 0  249828.2874404451 584740.7888937403 0  255409.5660975206 600458.8956828594 0  260819.9733392385 574219.403683011 0  252584.2262054711 605722.6603825617 0  254049.8830611471 592547.4852571967 0  250015.4356193061 598425.2225922942 0  245872.072249477 577604.9761853142 0  262002.1583249522 579753.4663046852 0  257732.6630933878 586227.970805314 0  250242.5556457866 577017.3316409125 0  244921.6453001869 581816.6358421432 0  256520.3890639471 580904.824006648 0  240779.0970645865 599524.6679555867 0  257100.1829219198 574459.5922545703 0  239912.2630002034 595231.1172704464 0  244703.0875078634 590068.6945953515 0  242549.5490268674 592874.3693043783 0  251586.0465921376 581796.2215047925 0  246643.189997516 596527.447801719 0  251049.7658069622 591057.6752245198 0  253014.5731561695 596998.6601086652 0  238680.2197353724 584542.2309791476 0  259715.365803504 591937.1938619445 0  254097.157218761 575731.4494927844 0  246806.6408589328 586139.0877599345 0  246136.1179750556 602959.471719323 0  253520.7033332401 602835.180253843 0  244125.4295793909 607538.9817227355 0  252546.8895354472 599881.3279113505 0  258289.0983523553 600397.640191779 0  247518.7952199645 583037.3718217331 0  263140.3959879661 582529.2228421422 0  262894.8586894067 585442.3590432997 0  256968.6320599076 593040.7691844478 0  243573.0187527719 600218.2795730785 0  258888.5766127351 595139.7745218446 0  262588.7569809347 576734.8569237856 0  259318.4257992262 580601.2540325444 0  249963.3812725965 607065.7205847671 0  257494.5307999607 583482.5893534871 0  258906.4757205145 572278.8089438241 0  237751.446593475 587300.5805003279 0  255142.4708720699 604956.7580261135 0  258485.4978753244 597756.9250383095 0  255516.7820591553 587791.39641967 0  239758.4692108706 601926.8203218657 0  255873.0092222999 577739.5085867504
[...]
<PointData  Scalars="f_32-0"> 
<DataArray  type="Float64"  Name="f_32-0"  format="ascii">2.5726136705703970e+07  2.5844538928027712e+07  2.5983008506185688e+07  2.6096459273167010e+07  2.6173971591755044e+07  2.6289453044140667e+07  2.6328786492327001e+07  2.6359957444694486e+07  2.6360049883227386e+07  2.6385536649147857e+07  2.6398422179003857e+07  2.6395704954425104e+07  2.6418455634930287e+07  2.6635336933792204e+07  2.6797168343522053e+07  2.6955597445663068e+07  2.7188671081412088e+07  2.7468304549959589e+07  2.7505422685927838e+07  2.7547513691846393e+07  2.7773312524966747e+07  2.7956263065028705e+07  2.8170322379416015e+07  2.8289931872652300e+07  2.8347092227820151e+07  2.8470842472924903e+07  2.8507220112986967e+07  2.8569383524666041e+07  2.8695857117377769e+07  2.8784408291036014e+07  2.8811545014998253e+07  2.8888134942781243e+07  2.9084808047134511e+07  2.9247317802075207e+07  2.9276816622157685e+07  2.9402852173773043e+07  2.9538897141574219e+07  2.9656692500662595e+07  2.9731833801995959e+07  2.9795257119988889e+07  2.9887349513464540e+07  2.9975905153894488e+07  3.0058660797526959e+07  3.0135589175265566e+07  3.0206110137138590e+07  3.0220970987115104e+07  3.0258590067730553e+07  3.0304508594274756e+07  3.0337957627299830e+07  3.0352656408290029e+07  3.0355880702472977e+07  3.0358912239825252e+07  3.0358380208235025e+07  3.0363868932152476e+07  3.0376206458796211e+07  3.0375247547931798e+07  3.0375307135592092e+07  3.0379838540411487e+07  3.0366577314721234e+07  3.0317675316216510e+07  3.0251803529016260e+07  3.0189478297140777e+07  3.0076081930885989e+07  2.9862696015907921e+07  2.9789410519529015e+07  2.9896962504624438e+07  2.9943173403618395e+07  2.9956001451138485e+07  2.9969309372598901e+07  2.9990744405501813e+07  3.0021593618109062e+07  3.0134281809755206e+07  3.0170627976957891e+07  3.0187608322510540e+07  3.0191018634590197e+07  3.0172653253894065e+07  3.0117652159521569e+07  3.0052794515288129e+07  2.9961022733313881e+07  2.9933662029004507e+07  2.9933195679383907e+07  2.9937266908106297e+07  2.9938034478013359e+07  2.9931810530477013e+07  2.9927215845114265e+07  2.9921604744774148e+07  2.9899870093707621e+07  2.9842634216425981e+07  2.9748414547971625e+07  2.9708045382698130e+07  2.9747217409937602e+07  2.9767864738734953e+07  2.9774817989430528e+07  2.9769105352871697e+07  2.9771589234362923e+07  2.9765520852197725e+07  2.9764199046665158e+07  2.9755448039794765e+07  2.9751062223481946e+07  2.9740781441313151e+07  2.9653206455403876e+07  2.9548568578459531e+07  2.9392878458837587e+07  2.9219017278904859e+07  2.8977338577530004e+07  2.8643297372085121e+07  2.8228263451790139e+07  2.7793443579625022e+07  2.7381807071003355e+07  2.7030778004315536e+07  2.6559763752423856e+07  2.6332400629739150e+07  2.6289659235841595e+07  2.6454120272984497e+07  2.6634260158148229e+07  2.6716382498931993e+07  2.6792749053633846e+07  2.6880615056275938e+07  2.6942574844652526e+07  2.6985330541403223e+07  2.6994790779661659e+07  2.6994884243998718e+07  2.6980350291280158e+07  2.6941556526422992e+07  2.6928188437162418e+07  2.6957922072908275e+07  2.6976433573105592e+07  2.6982324521826793e+07  2.6982332347107612e+07  2.6963229278556913e+07  2.6841810871259343e+07  2.6801720372975465e+07  2.6732844585232504e+07  2.6692405480148498e+07  2.6636638609606992e+07  2.6578478646021724e+07  2.6517856947534453e+07  2.6479720925428391e+07  2.6473395431295045e+07  2.6482459148025841e+07  2.6490983952631548e+07  2.6490415332357302e+07  2.6493908117239345e+07  2.6495571710104797e+07  2.6495368125477642e+07  2.6482502546519313e+07  2.6440426463903189e+07  2.6329479022900060e+07  2.6106253955874566e+07  2.5925303438516121e+07  2.5806370606293924e+07  2.5749466868905347e+07  2.5727505355555758e+07  2.5645628158477716e+07  2.5586038652131628e+07  2.5536282817569703e+07  2.5517759363262374e+07  2.5456242875604872e+07  2.5394927634459805e+07  2.5423621120414261e+07  2.5381896277106464e+07  2.5300346609335922e+07  2.5122707843683768e+07  2.4913113239331748e+07  2.4764594399645563e+07  2.4627971101390149e+07  2.4562203226989429e+07  2.4538233886811003e+07  2.4545417066952825e+07  2.4555448236905888e+07  2.4593365441472474e+07  2.4622840802107848e+07  2.4626984250346467e+07  2.4625838150558274e+07  2.4639832960636862e+07  2.4654722595427725e+07  2.4694677086916629e+07  2.4744019232193902e+07  2.4782303310463112e+07  2.4780626104803905e+07  2.4786080650933713e+07  2.4816627871822312e+07  2.4824821692739248e+07  2.4820781879543614e+07  2.4818811194262106e+07  2.4812648915880840e+07  2.4799978495003708e+07  2.4773945882323653e+07  2.4727777152829569e+07  2.4653447169598885e+07  2.4585568623258907e+07  2.4548863411899742e+07  2.4562788111331198e+07  2.4610235683788672e+07  2.4692694920675870e+07  2.4821797030058973e+07  2.4965928407554962e+07  2.5174081941195350e+07  2.5455790156575840e+07  2.5640213205959003e+07  2.6397608488836166e+07  2.7517541879731268e+07  3.0140228359899543e+07  3.0347650413770407e+07  3.0374681065805618e+07  2.9799385516636841e+07  3.0186170859773386e+07  2.5414168405792776e+07  2.9725527620087333e+07  2.9773425889605869e+07  2.6963775607131917e+07  2.6939278073121700e+07  2.6492085562038232e+07  2.6495226243388135e+07  3.0087574616169378e+07  2.6397594462998427e+07  2.6395322105678171e+07  3.0110038629376724e+07  3.0167011254214384e+07  2.5414171342733413e+07  2.9721225773916379e+07  2.9773429715504959e+07  2.9958006562973049e+07  3.0093632996198956e+07  2.9770528606976327e+07  3.0101955803348046e+07  2.9770492428748284e+07  2.4803467265358571e+07  2.7545039941035774e+07  2.9142913172880147e+07  2.5245813992053170e+07  2.4170585670379598e+07  2.5622340253524799e+07  2.8972756067294613e+07  2.6649320572178625e+07  2.7531049291940238e+07  2.4816132561623406e+07  2.4438535406249635e+07  2.9074715647595748e+07  2.5718865781934798e+07  2.9881968646668952e+07  2.7818144417297218e+07  2.5447343969029155e+07  2.5728100079958282e+07  2.8475157815011628e+07  2.4597864194274440e+07  2.9545591596689198e+07  2.6645007720620841e+07  2.8388143931882985e+07  2.5437473828618996e+07  2.4423394685695767e+07  2.4866715526241597e+07  2.4768695645104479e+07  2.5850300545420494e+07  2.4420265959363393e+07  2.9614884619909730e+07  2.4422160520038389e+07  2.9216535328934994e+07  2.7477770851461723e+07  2.8469470680974208e+07  2.5077082763096299e+07  2.8515611624354247e+07  2.6518197213997368e+07  2.7884934958284687e+07  2.6530235676453270e+07  2.6433944976047143e+07  2.4314743197179332e+07  2.6434967067068700e+07  2.9595039076031312e+07  2.9067589544286404e+07  3.0190930822198480e+07  2.8516505425953001e+07  2.8434732062272139e+07  2.5775302744418256e+07  2.4885774927289471e+07  2.5396264330040976e+07  2.6664766156670231e+07  2.9468765421138011e+07  2.7312635838638119e+07  2.4494048460886486e+07  2.4345220019252587e+07  2.9830041893228095e+07  2.4664096426641520e+07  2.4673603848950297e+07  2.6754345959481347e+07  2.9307748530363984e+07  2.7933449338533215e+07  2.4957837910480361e+07  2.9841360766888395e+07  2.4169024578686051e+07  2.6217563907589152e+07  2.6161534152211845e+07  2.7287750282209717e+07  2.5756627678917035e+07  2.4698406630407628e+07  2.5822502415362008e+07  2.5732526901741479e+07  2.4871245707894199e+07  2.5124034348342173e+07  2.5219496207978800e+07  2.5440829667357184e+07  3.0107866905100204e+07  2.9550104576453909e+07  2.5222779832581557e+07  2.9956366283734467e+07  2.9033836707631398e+07  2.8915310555692803e+07  2.9554787351680730e+07  2.6403169397947386e+07  2.6196156107613031e+07  2.7999238419661220e+07  2.8785461678182825e+07  2.5941184534521841e+07  2.9469566985041160e+07  2.4953607267434545e+07  2.7359358232925776e+07  2.4757406914970979e+07  2.5100504296458356e+07  2.7925743525422122e+07  2.9322565591992490e+07  2.7231181007335134e+07  2.8427707011299685e+07  2.6996317744767193e+07  2.8847598988725133e+07  2.4367584458262179e+07  2.5478855537102956e+07  2.5418623255320653e+07  2.9496792923491966e+07  2.7924805944515206e+07  2.4638354461995564e+07  2.9683290472647358e+07  2.6946323439565476e+07  2.9763576004219312e+07  2.4655779452672016e+07  3.0115608757299542e+07  3.0101658724055771e+07  2.5663186165036067e+07  2.6345470178752035e+07  3.0107093070499964e+07  3.0207205123604186e+07  2.9681069631364994e+07  2.9722292902276199e+07  2.6912093812415581e+07  2.4537767847726490e+07  2.9665940636849880e+07  2.9321445735985305e+07  2.5716577582651965e+07  2.6322887407869153e+07  2.6101212417628683e+07  3.0183584061916199e+07  3.0098181939690545e+07  2.7011834217041425e+07  2.9905825123298418e+07  2.9984968676675491e+07  3.0045117501730647e+07  3.0215048357742261e+07  2.6233453456437390e+07  2.5313782979710445e+07  2.6920479582573146e+07  2.4637389403576333e+07  2.6229912032679759e+07  2.4553877502277292e+07  2.6833628026970711e+07  3.0333294605106656e+07  2.6663450641062498e+07  2.6940037216326356e+07  2.9692478465036754e+07  2.6219387586800963e+07  2.4754229498146959e+07  2.6927173424459901e+07  2.4494430263345059e+07  2.5530216478962515e+07  2.9719125245130215e+07  2.9639782051750943e+07  2.6437402280997939e+07  3.0333228709523130e+07  2.4828042580689404e+07  2.9817862470463987e+07  2.7847589749700107e+07  2.4790243289940923e+07  2.4562419694067284e+07  2.4434245747489344e+07  2.8765988274112187e+07  2.9760939164609440e+07  2.9660248224923521e+07  2.8377544474290546e+07  3.0155330015187375e+07  2.7342577422978144e+07  2.5402063047356244e+07  2.5402239538147885e+07  2.4709599495093927e+07  3.0106120159649815e+07  3.0125552498006999e+07  3.0133427263508029e+07  2.9284670153196838e+07  2.9598724209881749e+07  3.0145519508178622e+07  3.0016053501437437e+07  2.6696616764509797e+07  3.0371819774280567e+07  3.0368510675644163e+07  2.6272255348911870e+07  2.4536596092467956e+07  2.6467678655029077e+07  2.9823204649189003e+07  2.6760264656492800e+07  2.6539835503064990e+07  3.0344077090432968e+07  2.6322353023988690e+07  2.8920354258852229e+07  2.5204532353940580e+07  2.5731793576076999e+07  2.5685132060065467e+07  2.5778631950976975e+07  2.9751046993735757e+07  2.6314754221043263e+07  2.6364586400020398e+07  2.6257485900996093e+07  2.6356525040823147e+07  2.6141901271667510e+07  2.4802317622724649e+07  2.4762985861001924e+07  2.6407900169790126e+07  2.5651031451013885e+07  2.6991902105910115e+07  2.6990993699187163e+07  3.0360319729089174e+07  2.7939885712863948e+07  2.7467616708067637e+07  2.6560612953368783e+07  2.6377066844314612e+07  2.6355911464513902e+07  2.6293930042784888e+07  2.6317271837214738e+07  2.6266339627206624e+07  2.6350820229245584e+07  2.6263275556938980e+07  2.6281732967547979e+07  2.6471859239561576e+07  2.6363567199967191e+07  2.5973951067790188e+07  2.6148103824152265e+07  2.5011208599967971e+07  2.5117292621694144e+07  2.4974776824624177e+07  2.4839589919657636e+07  2.4873315310719296e+07  2.4692598949471541e+07  2.4797084550622027e+07  2.4726168360990033e+07  2.4526136659565110e+07  2.4504661665787678e+07  2.4599101948059052e+07  2.4563532616760466e+07  2.4567088271982010e+07  2.4544543293685891e+07  2.4546780604138296e+07  2.4583173315190468e+07  2.4564165316215064e+07  2.4534021510404740e+07  2.4652040868114837e+07  2.4585436896302365e+07  2.4673961537428170e+07  2.4622461774068058e+07  2.4755440537424479e+07  2.4971429818947095e+07  2.4830245781299636e+07  2.4687237831848245e+07  2.4642093032468259e+07  2.4672721794824526e+07  2.4867601860237181e+07  2.7965534514738437e+07  2.7703081086850505e+07  2.7414537072806213e+07  2.7721014008364994e+07  2.8844323984426897e+07  2.9363222588877380e+07  2.9024762661721077e+07  2.9305203337024741e+07  2.5490305552651443e+07  2.5069921233299289e+07  2.5145317490514014e+07  2.5345898935394388e+07  2.4269986785574771e+07  2.4205080834461540e+07  2.4257706200743470e+07  2.4208000131471001e+07  2.4142143109010801e+07  2.4253051049291756e+07  2.6051994856560741e+07  2.6134998124964744e+07  2.5236858636547953e+07  2.5618308355904471e+07  2.5480680807736434e+07  2.9101607787230898e+07  2.8732690030628622e+07  2.6534333857057076e+07  2.6564467741421148e+07  2.6908477627405696e+07  2.6300701939078029e+07  2.6939893941780709e+07  2.6848393939552121e+07  2.7106840780810986e+07  2.7700032492820144e+07  2.7426858408009138e+07  2.4558806530819360e+07  2.4847375421867944e+07  2.5105224960633967e+07  2.4561954153600641e+07  2.4566692935484480e+07  2.4401698309313569e+07  2.4745525139317505e+07  2.4294009330732446e+07  2.4265707266292095e+07  2.4565947257543139e+07  2.4645789257028103e+07  2.8722897004320014e+07  2.9335044694095068e+07  2.8973404322708540e+07  2.9394662807851836e+07  2.9753545620062340e+07  2.8198331362790339e+07  2.7509052248149630e+07  2.8125574461273696e+07  2.7857347299106598e+07  2.5138818833975531e+07  2.5537224022758257e+07  2.5679214573180594e+07  2.5145147677913077e+07  2.8774760982291929e+07  2.8473723319949705e+07  2.8452517601835534e+07  2.8226563865616124e+07  2.4502036746443793e+07  2.4537703097551681e+07  2.6555309460328840e+07  2.6613238834101308e+07  2.6193814244862780e+07  2.8414870598501634e+07  2.8118097369472105e+07  2.8662199222693536e+07  2.8137268859319616e+07  2.5593108274265580e+07  2.5282637230358891e+07  2.5267953978709284e+07  2.5443570660302844e+07  2.5369375635830618e+07  2.5500715868073396e+07  2.4606952766256709e+07  2.4416773096159466e+07  2.4361039132904764e+07  2.4341521716848582e+07  2.4525244917612147e+07  2.4496610928032715e+07  2.4752727067742370e+07  2.4836863291144755e+07  2.5118551694330335e+07  2.4735963110012095e+07  2.4476035756532185e+07  2.4792005086338211e+07  2.4937413415058672e+07  2.4938371706238668e+07  2.4577442720945656e+07  2.4786862108659480e+07  2.5799302069800977e+07  2.6039624251166817e+07  2.5783170243356172e+07  2.5654993252208766e+07  2.4353411620845329e+07  2.4553012027420584e+07  2.4247710094195634e+07  2.4539896878527004e+07  2.4325975603889406e+07  2.4560326780623954e+07  2.4234368374111686e+07  2.4371809297756974e+07  2.4483179679942988e+07  2.4544280781950738e+07  2.4413516176979762e+07  2.7342186909154419e+07  2.7244687452960972e+07  2.7687272204042479e+07  2.7708756822248872e+07  2.8441571645576820e+07  2.4877627329322539e+07  2.4970564981931616e+07  2.8224640412909795e+07  2.6902583878471512e+07  2.6130237549540333e+07  2.6150697621949237e+07  2.6721659507438570e+07  2.8190139715881441e+07  2.7937613644490395e+07  2.6455637845591389e+07  2.6428214853974685e+07  2.6524719745019022e+07  2.5929442712898087e+07  2.4218133682506438e+07  2.4400974580156859e+07  2.4367123457418337e+07  2.6243401306151163e+07  2.6708853420736469e+07  2.9260952590378512e+07  2.9524940498202872e+07  2.8803104538373716e+07  2.9320500601437360e+07  2.8918384530180421e+07  2.8720812618398920e+07  2.8227176880166993e+07  2.8219066582495835e+07  2.5572514882396024e+07  2.4745698519264460e+07  2.6157582151623283e+07  2.6863458359119404e+07  2.4436969157496896e+07  2.4485600794987965e+07  2.4519369193688981e+07  2.4533424140679535e+07  2.4883564229946900e+07  2.5294007849923499e+07  2.5096669171917893e+07  2.4889772929244291e+07  2.5904315752234567e+07  2.6163097677074105e+07  2.6184049834188960e+07  2.6202642360730268e+07  2.6235320194403186e+07  2.7243830287358418e+07  2.7089124235631049e+07  2.5626061768877748e+07  2.4959425835996643e+07  2.4971114532825701e+07  2.5135688139207028e+07  2.5102917714772288e+07  2.4970897639282219e+07  2.5318833919345807e+07  2.5535541240131412e+07  2.5095256835848365e+07  2.9199114346574180e+07  2.5403005384219751e+07  2.5279188391648769e+07  2.7120194183294438e+07  2.7559550103827074e+07  2.8180354372118484e+07  2.7928795984558079e+07  2.4588636324425217e+07  2.4591461484122105e+07  2.4480885966683019e+07  2.6226585600732706e+07  2.4514598130996116e+07  2.6247770465258714e+07  2.4637254763935857e+07  2.4446801700083263e+07  2.6290270984878238e+07  2.4739894592349365e+07  2.7843748288538765e+07  2.4209550436668128e+07  2.4158492726040810e+07  2.4196516067036066e+07  2.4149886634942383e+07  2.4244706722156141e+07  2.6892961445915956e+07  2.4490625334092725e+07  2.4584506217363536e+07  2.4536758780405447e+07  2.9154604022032045e+07  2.5992302462529045e+07  2.5281864952977814e+07  2.5283948974181790e+07  2.5399121107534695e+07  2.4488825954595797e+07  2.8173459140470993e+07  2.8252888488511939e+07  2.4465880813910950e+07  2.4499295695490766e+07  2.4736565146280341e+07  2.4760708537033174e+07  2.4613510598684467e+07  2.5711242648621157e+07  2.6506386801040772e+07  2.6709049764890108e+07  2.6310565697176952e+07  2.6803248402524181e+07  2.4374312706157796e+07  2.4305952169034254e+07  2.4355988504711676e+07  2.4338115324287821e+07  2.8367238173733421e+07  2.4265228134870004e+07  2.4341786017025981e+07  2.4435213362621140e+07  2.5079587679885957e+07  2.5029170948180247e+07  2.5108218496501230e+07  2.4991863700757287e+07  2.4207301793674413e+07  2.4176853517673656e+07  2.4187577032580655e+07  2.5256747573057737e+07  2.8812964041632395e+07  2.8937797823653128e+07  2.9085677938707277e+07  2.6358616347024038e+07  2.8104698266592171e+07  2.5157841216802735e+07  2.5116836946659144e+07  2.5029574300251406e+07  2.5188487080835950e+07  2.7392040289534006e+07  2.6929230427042559e+07  2.7068922043821853e+07  2.4290640538305551e+07  2.4308736916021507e+07  2.4361556179496709e+07  2.5455609315716229e+07  2.5563606406730257e+07  2.5507402437631615e+07  2.5375742551085986e+07  2.7737853627722241e+07  2.4533618327825911e+07  2.4506491097011872e+07  2.4525688464941792e+07  2.6244894815002870e+07  2.6214137734242074e+07  2.6226740152171936e+07  2.4701115749216363e+07  2.4805207930920094e+07  2.4897285288888015e+07  2.4378978897566941e+07  2.4531889164925575e+07  2.4509012434832633e+07  2.6294954304617509e+07  2.6388220632722549e+07  2.6335304552760024e+07  2.6276511729908548e+07  2.6280766503661834e+07  2.6303327890733030e+07  2.6263540861787550e+07  2.4970572040893055e+07  2.4525015711222742e+07  2.4705222575933941e+07  2.8046269202705525e+07  2.5242680844410937e+07  2.5208371638926823e+07  2.4244947566304937e+07  2.4155030448498830e+07  2.4276267366869628e+07  2.4259423613089569e+07  2.4166326944631472e+07  2.4172083213884376e+07  2.5332549422136039e+07  2.5147403360735789e+07  2.5278715898363281e+07  2.6698637351258699e+07  2.6984041348131392e+07  2.4577971097715791e+07  2.4715278633326963e+07  2.4410513050983738e+07  2.4502589516875625e+07  2.4692877458833806e+07  2.4371906950267043e+07  2.4248466154340763e+07  2.4219417571633618e+07  2.4806003398694124e+07  2.9114275986554246e+07  2.5199737367551275e+07  2.5402748413320426e+07  2.5265481130874768e+07  2.8339642129212689e+07  2.8347455668677464e+07  2.8218426885024861e+07  2.5354124790908426e+07  2.5532959844156407e+07  2.5359654949941106e+07  2.4876583429542791e+07  2.5606169145273726e+07  2.5632903843275007e+07  2.4254991463670306e+07  2.4340438723893035e+07  2.7509147216888696e+07  2.7446118519079778e+07  2.7618842310909789e+07  2.4379345997873161e+07  2.4500417873714939e+07  </DataArray> 
</PointData> 
</Piece>
</UnstructuredGrid>
</VTKFile>