<?xml version="1.0"?>
<VTKFile type="UnstructuredGrid"  version="0.1"  >
<UnstructuredGrid>
<Piece  NumberOfPoints="784" NumberOfCells="1320">
<Points>
<DataArray  type="Float64"  NumberOfComponents="3"  format="ascii">266913.131276 586512.314988 0  266738.13716 587762.325998 0  266363.132677 589012.328643 0  266175.641078 590169.601714 0  265666.575631 591040.7699119999 0  264875.64001 591687.766419 0  264900.636161 591845.049083 0  266088.14152 592012.3229499999 0  265561.959259 592661.17101 0  264288.136855 593037.368683 0  263865.194033 593999.8486949999 0  263850.641856 593236.729596 0  263625.634872 592756.525286 0  262689.574249 593299.848918 0  262475.636737 594003.0907310001 0  261934.554452 594340.929792 0  261725.631329 594932.094409 0  261729.256443 595728.498809 0  262138.136044 595012.330523 0  262288.141035 596262.333669 0  261488.994028 597511.480605 0  261234.15567 598316.338928 0  260815.635063 599014.863821 0  261400.643658 599389.7367680001 0  261322.963374 600022.185065 0  261119.455248 600931.061306 0  261607.436504 601293.0629359999 0  260807.446929 602089.899812 0  260025.642878 602988.868697 0  259613.135827 603937.3854499999 0  259050.643123 604100.987861 0  258411.880065 603988.6335979999 0  257764.357469 604449.872569 0  257971.239668 605320.429125 0  258041.396867 605740.635381 0  257188.143339 606987.394312 0  256038.141198 608112.3554550001 0  254788.141633 609087.4026939999 0  253588.140656 609812.362881 0  252338.135706 609737.4048949999 0  251088.138116 609787.404055 0  249963.12851 610287.399466 0  248613.130524 610462.365857 0  247363.132198 610687.407659 0  246113.130532 610837.411551 0  245832.347438 610918.209918 0  245016.946433 610958.5639439999 0  244313.129646 610762.372259 0  244400.622144 611378.093316 0  243939.669208 612460.8930899999 0  242960.649733 611984.892792 0  242170.381438 611919.647351 0  241888.122919 611112.375656 0  241393.380757 610467.6456149999 0  240594.157528 611306.369822 0  240525.621947 610804.648112 0  240363.123632 610512.3745050001 0  239113.123247 610262.374278 0  239813.12126 609037.412459 0  240588.122952 607812.368199 0  241013.119545 606625.9534560001 0  241454.373249 605724.888025 0  242238.120107 604687.3993 0  243088.121248 603462.362766 0  242860.319451 603007.3932640001 0  241563.116617 603812.361344 0  241778.400913 604327.642217 0  242059.837234 604824.879102 0  241475.620201 604923.2402390001 0  241462.182234 605449.881372 0  240906.219606 605674.888222 0  240241.856192 606891.125066 0  239891.734044 607841.012479 0  239048.653431 608724.889805 0  238118.054545 608974.895967 0  238888.111029 607337.406468 0  239738.119992 606212.362729 0  240288.12044 605687.4075229999 0  240380.212307 604729.521696 0  239347.309632 604603.204501 0  238888.112036 604387.408787 0  237913.11173 604687.401386 0  236784.172023 604499.882783 0  236883.408793 603717.08334 0  236154.933927 603595.565605 0  235688.103943 602912.369264 0  235763.108033 601662.366516 0  236363.110805 600412.35884 0  236738.107995 599162.356577 0  236525.607944 598482.2412899999 0  236138.109208 599362.357613 0  235725.063048 600325.4466510001 0  235091.948926 601408.5220979999 0  235188.10921 600312.366344 0  234375.602405 600833.9674270001 0  234663.109308 599912.358011 0  234138.105122 600062.365644 0  233955.307245 599029.561063 0  233338.103791 598387.401556 0  233988.09795 597862.356384 0  235138.101489 596637.3947750001 0  235563.1039 595387.392428 0  236513.103639 594212.356312 0  237163.10684 592987.3929869999 0  238313.103031 591862.3515540001 0  239513.107028 590812.3512640001 0  240638.102135 589787.387271 0  241463.109549 588587.378486 0  242294.489816 587443.735215 0  242913.101099 586512.341804 0  243544.066915 585474.859604 0  243040.448415 585184.975583 0  242438.10214 585337.38015 0  241313.102353 586562.339499 0  240538.107104 587787.382449 0  240114.641085 588588.939407 0  239388.100256 589437.382238 0  238188.104456 590512.346358 0  236938.100507 591362.349798 0  235813.10453 592537.396388 0  234864.502938 593178.7753880001 0  234463.097651 592862.357267 0  235113.0965 591662.3545979999 0  235713.101522 590412.346099 0  235777.688431 589976.7582779999 0  234943.583145 590706.265132 0  234462.482256 591490.2841159999 0  233801.497784 592112.940187 0  233388.099101 591787.394208 0  234013.093099 590437.393065 0  234776.217248 587148.7548100001 0  235163.093726 586562.3486189999 0  235313.098918 585483.229012 0  235250.59732 584662.298153 0  235588.093896 583337.379493 0  236329.432041 582199.858992 0  237188.096234 581462.3349939999 0  237463.088521 580212.335511 0  238350.592558 579057.652616 0  238591.415797 578574.847681 0  238313.094106 577612.328905 0  239229.696732 577695.769664 0  240195.161018 577513.008613 0  240614.996733 577149.8518770001 0  240663.091715 577412.332622 0  240288.092486 578662.334085 0  239942.357258 579508.095811 0  240438.100019 580212.3334220001 0  241338.095553 580387.375355 0  241238.099828 579137.369157 0  241788.097003 577887.370889 0  241983.554649 577241.9220939999 0  242054.178239 576927.8105029999 0  242588.100699 575737.366175 0  243149.324833 574898.583978 0  243695.278626 573919.517981 0  244268.494418 573724.8454239999 0  244995.134063 573930.2767810001 0  245417.314363 573391.601898 0  243450.599125 571859.479773 0  245776.797908 572599.8353060001 0  246779.639852 572973.285167 0  248034.741935 573186.082054 0  249413.10651 573162.3205520001 0  250496.922226 573271.1521899999 0  251613.105126 573237.3551319999 0  252421.824577 572846.032906 0  253256.245022 572580.4733130001 0  253739.471933 571960.9547369999 0  254174.511864 572149.8346569999 0  254484.944333 571684.194807 0  254384.108649 570891.346712 0  254344.002752 570218.26407 0  255025.609604 570829.0294979999 0  255715.005913 570489.264586 0  256218.846343 570774.828355 0  256834.349083 570508.5908 0  257390.092515 570014.308325 0  257624.431042 568493.478911 0  259355.811717 569380.021819 0  260033.372814 569617.066669 0  262679.741751 570320.699974 0  263289.115756 569524.817815 0  263463.114338 570512.301061 0  264638.198419 570687.3443539999 0  265058.220065 571334.378467 0  265447.561421 572077.90485 0  265488.125257 573137.3446020001 0  265131.937715 573963.293593 0  265432.389648 575093.068786 0  265638.122314 576338.029955 0  265750.630817 577371.8281319999 0  265738.570663 578561.9098850001 0  265875.630866 579139.630549 0  266213.129247 579862.311842 0  266563.130472 581112.314509 0  266238.135356 582362.310259 0  265938.12863 583612.320897 0  265738.131342 584762.3210189999 0  266875.638633 585365.358768 0  264018.7239399826 593650.4646671159 0  262236.3944351029 595831.1252656333 0  241846.246678 605206.1436625 0  240200.622106 608424.8903290001 0  240943.4862974102 610939.7757535663 0  236550.6094 599787.3577085 0  238528.1212051503 608102.9081793013 0  244413.4891967989 572609.5960859474 0  236382.0474488751 598808.3067022427 0  235369.601910944 600933.5380148316 0  235413.099011 591037.3503485 0  235446.2251831186 590266.6553871984 0  240475.5921005 578037.3333535 0  240413.173949154 577324.4280286073 0  240574.037899 606283.0066440001 0  263857.9179445 593618.2891454998 0  264153.4303974913 593343.916675058 0  242042.1833925 604946.7714812499 0  241650.3099635 605465.51584375 0  244613.6985165 572229.6575395 0  236631.8579695 598822.2989335 0  235140.029068 600860.444221 0  241767.7287175 604874.0596705 0  242140.15174975 604817.0853906251 0  234781.8558075 600573.1668855001 0  242091.167571125 604881.9284359375 0  234519.3558565 600373.162719 0  254604.8337712102 583989.0014118921 0  250699.5846056537 594617.3297041012 0  250540.4796469513 602258.2940568649 0  248483.7490186612 580334.7345534252 0  258549.2190328319 577893.951823392 0  257067.0067473103 590016.5327808241 0  243285.0921999099 596333.923437875 0  248333.1386145258 589098.0389905117 0  256142.8445072741 595883.3911551933 0  260245.1368072523 583315.2785712298 0  253472.3380211276 578932.2908163272 0  246432.3347504817 599884.5019511909 0  261555.9240922556 588041.186709004 0  247293.1100123104 605823.8307887657 0  246458.2798550911 593168.8646574575 0  252840.0183145193 588226.5564648228 0  249828.2874404451 584740.7888937403 0  255409.5660975206 600458.8956828594 0  260819.9733392385 574219.403683011 0  252584.2262054711 605722.6603825617 0  254049.8830611471 592547.4852571967 0  250015.4356193061 598425.2225922942 0  245872.072249477 577604.9761853142 0  262002.1583249522 579753.4663046852 0  257732.6630933878 586227.970805314 0  250242.5556457866 577017.3316409125 0  244921.6453001869 581816.6358421432 0  256520.3890639471 580904.824006648 0  240779.0970645865 599524.6679555867 0  257100.1829219198 574459.5922545703 0  239912.2630002034 595231.1172704464 0  244703.0875078634 590068.6945953515 0  242549.5490268674 592874.3693043783 0  251586.0465921376 581796.2215047925 0  246643.189997516 596527.447801719 0  251049.7658069622 591057.6752245198 0  253014.5731561695 596998.6601086652 0  238680.2197353724 584542.2309791476 0  259715.365803504 591937.1938619445 0  254097.157218761 575731.4494927844 0  246806.6408589328 586139.0877599345 0  246136.1179750556 602959.471719323 0  253520.7033332401 602835.180253843 0  244125.4295793909 607538.9817227355 0  252546.8895354472 599881.3279113505 0  258289.0983523553 600397.640191779 0  247518.7952199645 583037.3718217331 0  263140.3959879661 582529.2228421422 0  262894.8586894067 585442.3590432997 0  256968.6320599076 593040.7691844478 0  243573.0187527719 600218.2795730785 0  258888.5766127351 595139.7745218446 0  262588.7569809347 576734.8569237856 0  259318.4257992262 580601.2540325444 0  249963.3812725965 607065.7205847671 0  257494.5307999607 583482.5893534871 0  258906.4757205145 572278.8089438241 0  237751.446593475 587300.5805003279 0  255142.4708720699 604956.7580261135 0  258485.4978753244 597756.9250383095 0  255516.7820591553 587791.39641967 0  239758.4692108706 601926.8203218657 0  255873.0092222999 577739.5085867504
[...]
<PointData  Scalars="f_24704-0"> 
<DataArray  type="Float64"  Name="f_24704-0"  format="ascii">1.8955258592065778e+07  1.9027851819992080e+07  1.9108674410392635e+07  1.9171685461011931e+07  1.9211961319780178e+07  1.9269395766481437e+07  1.9290044047660753e+07  1.9308969623371664e+07  1.9308250005136933e+07  1.9315735476366866e+07  1.9322737366046991e+07  1.9320128017342366e+07  1.9324870516108412e+07  1.9408004619589720e+07  1.9475087215569932e+07  1.9541549620288201e+07  1.9642102657202605e+07  1.9766571628588084e+07  1.9784815234112263e+07  1.9802241587620247e+07  1.9897735225582302e+07  1.9975827154795203e+07  2.0068864749416906e+07  2.0122546776893280e+07  2.0148067279801313e+07  2.0203686184536465e+07  2.0220342099729657e+07  2.0247537736362223e+07  2.0303773020041857e+07  2.0343970052024893e+07  2.0356134654319357e+07  2.0390942138926450e+07  2.0485235754605744e+07  2.0566864860796917e+07  2.0581979683629800e+07  2.0646641904821120e+07  2.0717140991831236e+07  2.0778749438876837e+07  2.0818237463695955e+07  2.0851439775050674e+07  2.0900570362340424e+07  2.0948820171440840e+07  2.0994753820709925e+07  2.1038044119855188e+07  2.1078164126147732e+07  2.1086654234671790e+07  2.1108180513255622e+07  2.1134456237492584e+07  2.1153490952108804e+07  2.1161833272537936e+07  2.1163730520321567e+07  2.1165512715969943e+07  2.1165351100956455e+07  2.1168753293376889e+07  2.1175829921178546e+07  2.1175300095902085e+07  2.1175374678227477e+07  2.1177992217783317e+07  2.1170611014886815e+07  2.1143542452885475e+07  2.1107438222829979e+07  2.1073560984603684e+07  2.1013004749291737e+07  2.0908255504032448e+07  2.0888851013326056e+07  2.0981517200415704e+07  2.1011584905471791e+07  2.1019605735772662e+07  2.1027780121575106e+07  2.1040640346437756e+07  2.1058555365874957e+07  2.1123251653601997e+07  2.1144057730921630e+07  2.1153770118348267e+07  2.1155719167274963e+07  2.1145215016993750e+07  2.1113727918548957e+07  2.1076544097139973e+07  2.1025073315463215e+07  2.1014523838334698e+07  2.1017104027126670e+07  2.1023251936154943e+07  2.1025188493963681e+07  2.1022876932545755e+07  2.1021881637362342e+07  2.1019632214482989e+07  2.1009238929667890e+07  2.0981077929427844e+07  2.0937467206985664e+07  2.0925757990249339e+07  2.0954936869305767e+07  2.0968276029051922e+07  2.0972596657804523e+07  2.0969097280487828e+07  2.0970700298623718e+07  2.0967051632903345e+07  2.0966360071063824e+07  2.0961282209751353e+07  2.0958824885057263e+07  2.0952709069163203e+07  2.0901992839930650e+07  2.0843830527910795e+07  2.0757546379099485e+07  2.0660578446833152e+07  2.0523279050365508e+07  2.0330768724455681e+07  2.0090051473093785e+07  1.9840469836803425e+07  1.9616221211390447e+07  1.9443090798816931e+07  1.9248016786982682e+07  1.9192179852647275e+07  1.9220987088087589e+07  1.9357832112783108e+07  1.9469729595281761e+07  1.9521249754116703e+07  1.9570432862190533e+07  1.9628184798117999e+07  1.9669346531294886e+07  1.9697928341351178e+07  1.9704243724761683e+07  1.9704305464535464e+07  1.9694585708499413e+07  1.9668691552550957e+07  1.9659849105683628e+07  1.9679852319850862e+07  1.9692286718358614e+07  1.9696224330066353e+07  1.9696227024329696e+07  1.9683414859882999e+07  1.9602352916313924e+07  1.9575650655444428e+07  1.9529467771480750e+07  1.9502156288007446e+07  1.9464191216614995e+07  1.9423993439131703e+07  1.9381311407044843e+07  1.9352858894792963e+07  1.9346881208716232e+07  1.9352719760736652e+07  1.9358416539937485e+07  1.9358002213236690e+07  1.9360337169286516e+07  1.9361470024010420e+07  1.9361331166139532e+07  1.9352546189287230e+07  1.9323740721175723e+07  1.9246230660545729e+07  1.9084448281073667e+07  1.8952083635530528e+07  1.8870790002155915e+07  1.8834247687949218e+07  1.8820606818560790e+07  1.8772530418542773e+07  1.8740148548861470e+07  1.8714735225987721e+07  1.8705568199393462e+07  1.8675921029695336e+07  1.8647432015309814e+07  1.8660929077862382e+07  1.8641508702580933e+07  1.8605532488181002e+07  1.8528788091072220e+07  1.8434296165914696e+07  1.8358199853812445e+07  1.8276075045317777e+07  1.8227575510185197e+07  1.8198426662829407e+07  1.8189510480090454e+07  1.8187684245675128e+07  1.8192124953262687e+07  1.8199041428705119e+07  1.8200271469281800e+07  1.8199361039862499e+07  1.8202844796102278e+07  1.8207466112835485e+07  1.8223586359668199e+07  1.8250291387654241e+07  1.8274749074984349e+07  1.8266034321194496e+07  1.8264007333125558e+07  1.8274117686590552e+07  1.8278974661079299e+07  1.8276396084602222e+07  1.8275393596403569e+07  1.8271796281306803e+07  1.8264513022862773e+07  1.8250174482942916e+07  1.8226659342226017e+07  1.8194606651812583e+07  1.8175353510618370e+07  1.8174442670908276e+07  1.8202435665781304e+07  1.8235402399829902e+07  1.8284811536441233e+07  1.8360891596475568e+07  1.8452664055619735e+07  1.8591673091267653e+07  1.8779196264637142e+07  1.8900403590329982e+07  1.9322066955924619e+07  1.9789362902134500e+07  2.1047047974244412e+07  2.1160111327320304e+07  2.1174966382410232e+07  2.0960338830192536e+07  2.1152947921408433e+07  1.8656412579830676e+07  2.0940044669508900e+07  2.0971738621053241e+07  1.9683496092031531e+07  1.9667319868877597e+07  1.9359090819968913e+07  1.9361234358155519e+07  2.1096490316299912e+07  1.9322065289059557e+07  1.9320346954904694e+07  2.1030947747087192e+07  2.1061431026670400e+07  1.8656412928432766e+07  2.0926868426718038e+07  2.0971740812753666e+07  2.1020861242935628e+07  2.1022254587829579e+07  2.0970045067124918e+07  2.1026659324321903e+07  2.0970024543671951e+07  1.8423463979871884e+07  1.9688633858559329e+07  2.0470620611885153e+07  1.8587050206472963e+07  1.7958910728057347e+07  1.8873841190256648e+07  2.0474791670015913e+07  1.9246320250229120e+07  1.9723566121068921e+07  1.8396971315864362e+07  1.8169576825921390e+07  2.0465389273546372e+07  1.8945498243045360e+07  2.0890972837104075e+07  1.9844476584348850e+07  1.8794834694369748e+07  1.8844403975539558e+07  2.0166035753032241e+07  1.8142161650498968e+07  2.0709463600198802e+07  1.9293929117915560e+07  2.0083641000491560e+07  1.8660526716508877e+07  1.8120478227600686e+07  1.8510491328641515e+07  1.8365943995416306e+07  1.8908179623491369e+07  1.8152819675528735e+07  2.0837230238776419e+07  1.8087979994170573e+07  2.0646588937066440e+07  1.9658377102652874e+07  2.0219464486776490e+07  1.8500278270450018e+07  2.0182986249228783e+07  1.9237526084801871e+07  1.9848289901422363e+07  1.9401575319856711e+07  1.9275122707664624e+07  1.8120158040921599e+07  1.9141025515832447e+07  2.0738094005249232e+07  2.0447761229149096e+07  2.1071141427962940e+07  2.0150312097976182e+07  2.0171506349759899e+07  1.8855024569861073e+07  1.8417295207623512e+07  1.8748423156799626e+07  1.9341128011864390e+07  2.0714209583455250e+07  1.9668615220079243e+07  1.8107726993541773e+07  1.8105954100127894e+07  2.0864071850577604e+07  1.8336330071889393e+07  1.8197679769597609e+07  1.9545305691954918e+07  2.0590390704435900e+07  1.9943621049608689e+07  1.8583701840988636e+07  2.0963093464383241e+07  1.8005342755196117e+07  1.9208027314254716e+07  1.9134987646077719e+07  1.9574037915516708e+07  1.8842839876618106e+07  1.8305469308972348e+07  1.9011700534351356e+07  1.8901410202425484e+07  1.8391912839759797e+07  1.8527628848518446e+07  1.8657375563170016e+07  1.8801460403460082e+07  2.1021877890846748e+07  2.0701386116981454e+07  1.8616113627505474e+07  2.0940497031269409e+07  2.0472162242643427e+07  2.0358440084828716e+07  2.0829080417938787e+07  1.9308374097806849e+07  1.9061114939802200e+07  1.9930873535557516e+07  2.0329735155907299e+07  1.8962390884238180e+07  2.0655334207716480e+07  1.8562146881300710e+07  1.9608859981759414e+07  1.8237129387740728e+07  1.8511354618049402e+07  1.9876739551577765e+07  2.0686142884053808e+07  1.9534303478917103e+07  2.0177843488533642e+07  1.9396758549867276e+07  2.0443953368897222e+07  1.8024788847187918e+07  1.8701214758540489e+07  1.8674548069748115e+07  2.0810667780446708e+07  1.9916326179972313e+07  1.8256628908964172e+07  2.0790422799903329e+07  1.9421647985453427e+07  2.0933595718374908e+07  1.8182751244193334e+07  2.1031743518199161e+07  2.1025754355295800e+07  1.8781294932354942e+07  1.9292665982804373e+07  2.1029200036210924e+07  2.1078864626904014e+07  2.0899806675671950e+07  2.0940843349403344e+07  1.9649169036116499e+07  1.8161608164756916e+07  2.0795394307501025e+07  2.0603753716050379e+07  1.8813724087284535e+07  1.9284776142033000e+07  1.9167207497476526e+07  2.1069982005549595e+07  2.1024608655577157e+07  1.9551081719415236e+07  2.0997930634138297e+07  2.0966189635608871e+07  2.0996321098170321e+07  2.1083283127927456e+07  1.9112059012817599e+07  1.8610411910691377e+07  1.9654662134599451e+07  1.8192964229664057e+07  1.9234899988883153e+07  1.8201974570252493e+07  1.9597030589995943e+07  2.1151851992108740e+07  1.9483976736619927e+07  1.9667845528767392e+07  2.0910937326339945e+07  1.9168486022741649e+07  1.8245382053156368e+07  1.9659233218222998e+07  1.8212100281985413e+07  1.8711454858543988e+07  2.0937341010590903e+07  2.0891617941872247e+07  1.9323803991215583e+07  2.1151219221896615e+07  1.8401343175180338e+07  2.0966611744276118e+07  1.9922534765004516e+07  1.8258269948638234e+07  1.8180255414062843e+07  1.8148382322243687e+07  2.0334011623859428e+07  2.0855170868914630e+07  2.0819999915219646e+07  2.0157200978465103e+07  2.1054990334715798e+07  1.9703253518140025e+07  1.8650731966080468e+07  1.8650816508814655e+07  1.8226414573392779e+07  2.1028852644933369e+07  2.1039205092632435e+07  2.1043339777490489e+07  2.0585691089162406e+07  2.0861108665671036e+07  2.1043544280047476e+07  2.0969858778395705e+07  1.9508607912396733e+07  2.1173361573695574e+07  2.1171624923658006e+07  1.9212140818797324e+07  1.8154525046869516e+07  1.9342641241934180e+07  2.0872402757592950e+07  1.9455713161861885e+07  1.9400241551185451e+07  2.1157025469802383e+07  1.9271648363027155e+07  2.0401753675183512e+07  1.8616375511953827e+07  1.8823204818057526e+07  1.8795181465720519e+07  1.8852804430045880e+07  2.0957958802323785e+07  1.9281834698609170e+07  1.9308444906158943e+07  1.9251724477219775e+07  1.9303221857444622e+07  1.9193706999953609e+07  1.8264853804897584e+07  1.8242228827036522e+07  1.9307784194908440e+07  1.8775224884752430e+07  1.9702317476159677e+07  1.9701708624946944e+07  2.1166912341389216e+07  1.9921351205784433e+07  1.9652766448769815e+07  1.9213925960534565e+07  1.9156462124017257e+07  1.9170178017081030e+07  1.9200085160799894e+07  1.9164478045310076e+07  1.9181250787866976e+07  1.9287200784573667e+07  1.9195562664252654e+07  1.9240836824487511e+07  1.9370879857948638e+07  1.9301759047150236e+07  1.8988798973027784e+07  1.9119477175192051e+07  1.8479809153973825e+07  1.8527646320796724e+07  1.8465742457352892e+07  1.8398011124711864e+07  1.8418465671369277e+07  1.8316951247511417e+07  1.8380534364699803e+07  1.8342036207491968e+07  1.8209148950951505e+07  1.8181901013012938e+07  1.8175299914517064e+07  1.8172816629474580e+07  1.8169218667828824e+07  1.8182760461442422e+07  1.8168476666742671e+07  1.8217612057046495e+07  1.8206317227918830e+07  1.8173072509109393e+07  1.8260944387763727e+07  1.8220963285631228e+07  1.8275568939529885e+07  1.8244089204846136e+07  1.8323347198787779e+07  1.8460803474397495e+07  1.8369167302676283e+07  1.8411078417606611e+07  1.8298003867478039e+07  1.8354905531732570e+07  1.8489645650738910e+07  1.9885693577436946e+07  1.9760563036274366e+07  1.9631329856638175e+07  1.9773165474645037e+07  2.0311271011871841e+07  2.0594108411113106e+07  2.0408929753901612e+07  2.0561608705113094e+07  1.8714005277208511e+07  1.8493499334768042e+07  1.8534969469481781e+07  1.8638628189488918e+07  1.8015617054332644e+07  1.8016851822500303e+07  1.7994529934490740e+07  1.8005449329355992e+07  1.7964979930940993e+07  1.7978448300293375e+07  1.9079287891940784e+07  1.9101939880461100e+07  1.8703194436353095e+07  1.8860677298398051e+07  1.8819240368704733e+07  2.0567210712924358e+07  2.0356364004563045e+07  1.9228222381547298e+07  1.9192493941939075e+07  1.9389624812750328e+07  1.9103629850994006e+07  1.9381982847413126e+07  1.9316166834254082e+07  1.9514766389301281e+07  1.9779138677457113e+07  1.9653937957196120e+07  1.8229520389853828e+07  1.8405148131585140e+07  1.8569841222279295e+07  1.8241372342733730e+07  1.8258560868354388e+07  1.8134970298618410e+07  1.8321478197341561e+07  1.8114227703832876e+07  1.8073688464266706e+07  1.8225741792371638e+07  1.8279008963629529e+07  2.0263180920715936e+07  2.0601898690035619e+07  2.0400471193385329e+07  2.0642726483432576e+07  2.0819750020294800e+07  2.0030203873940576e+07  1.9685475389663767e+07  2.0010923566737324e+07  1.9875012658555280e+07  1.8666797476699445e+07  1.8826066794349067e+07  1.8876255842521749e+07  1.8665907450790059e+07  2.0303730234679852e+07  2.0148896558797207e+07  2.0166928038308326e+07  2.0044524630270660e+07  1.8099101165168889e+07  1.8112490092399951e+07  1.9249605565014739e+07  1.9297247305291023e+07  1.9095908323473211e+07  2.0110157704434507e+07  1.9952058320102595e+07  2.0221187931180872e+07  1.9972143730463836e+07  1.8743976702529144e+07  1.8590584754476216e+07  1.8583816537649516e+07  1.8669951194288038e+07  1.8630867272419631e+07  1.8693575729555763e+07  1.8247056426536359e+07  1.8087478916853722e+07  1.8097350457368664e+07  1.8035224253534846e+07  1.8187386738525745e+07  1.8164279102129430e+07  1.8421956769194216e+07  1.8519712386504147e+07  1.8641618281401377e+07  1.8464632785328157e+07  1.8226938362614688e+07  1.8364732368330795e+07  1.8446591352491174e+07  1.8439733201690722e+07  1.8277252367758572e+07  1.8381030019343846e+07  1.8875021061005127e+07  1.9027923875728700e+07  1.8867437651319779e+07  1.8800893326395180e+07  1.8116806391200475e+07  1.8246581812495735e+07  1.8045675442260910e+07  1.8219155805072706e+07  1.8083203460171413e+07  1.8142675832983132e+07  1.8017104229400393e+07  1.8034174223112002e+07  1.8128573337129567e+07  1.8146895423936062e+07  1.8112762583182644e+07  1.9588247870321769e+07  1.9522566015612334e+07  1.9783619431844424e+07  1.9788771448538866e+07  2.0196413661101349e+07  1.8398552816691555e+07  1.8438178803652406e+07  2.0029363598798461e+07  1.9403854403153952e+07  1.9066661093749870e+07  1.9067960895848952e+07  1.9325047602507364e+07  1.9991618397095084e+07  1.9885334103688661e+07  1.9350016974992603e+07  1.9339575214006715e+07  1.9296327674234699e+07  1.9034475663230743e+07  1.8053195039815906e+07  1.8167410688604336e+07  1.8132256455697197e+07  1.9064685281073622e+07  1.9259566262492109e+07  2.0552283450689640e+07  2.0691730494043902e+07  2.0302658802864179e+07  2.0576639278999582e+07  2.0383543618117303e+07  2.0244415407949157e+07  2.0024972959460247e+07  2.0054622730543021e+07  1.8760287135867689e+07  1.8325491969495758e+07  1.9096486812566578e+07  1.9456827741010141e+07  1.8064838067494340e+07  1.8137499641653560e+07  1.8133738379936561e+07  1.8231739218809422e+07  1.8467324734172780e+07  1.8724995120034616e+07  1.8643219580276351e+07  1.8550901888922777e+07  1.9035062661396846e+07  1.9111350406301614e+07  1.9150033828726456e+07  1.9166513697468247e+07  1.9203414477305774e+07  1.9548875697830889e+07  1.9486285669264823e+07  1.8772143275590952e+07  1.8461580769379873e+07  1.8448789895710446e+07  1.8524659643683560e+07  1.8513930151830502e+07  1.8465389449073534e+07  1.8729272366413202e+07  1.8784916477652185e+07  1.8590395221676882e+07  2.0509608530586604e+07  1.8758057979729798e+07  1.8596226040153153e+07  1.9455716989666384e+07  1.9715321609394208e+07  2.0050491801599335e+07  1.9916816276698992e+07  1.8225331491932869e+07  1.8160439862089828e+07  1.8150802337578017e+07  1.9138136425707251e+07  1.8164594609699715e+07  1.9215134071355306e+07  1.8299982627182778e+07  1.8173498560345028e+07  1.9237497350677796e+07  1.8435081841169558e+07  1.9829736353742797e+07  1.7979253436715405e+07  1.7974338584551688e+07  1.7964318820325136e+07  1.7957597458676666e+07  1.7977561064531516e+07  1.9345719573515300e+07  1.8209701427972414e+07  1.8240002642431851e+07  1.8222827189710632e+07  2.0501901847452305e+07  1.9011412697091836e+07  1.8727696327850193e+07  1.8727641745181978e+07  1.8769782720848717e+07  1.8085260396214783e+07  1.9982919329273116e+07  2.0023347707474925e+07  1.8162191468668438e+07  1.8176768954152428e+07  1.8444960433284614e+07  1.8470611300277401e+07  1.8295204614503562e+07  1.8833162992027223e+07  1.9227679897828098e+07  1.9320284812925622e+07  1.9143718420075640e+07  1.9361839620608807e+07  1.8167306487075586e+07  1.8096137052346136e+07  1.8143948819308911e+07  1.8125424229076721e+07  2.0084415108283617e+07  1.8050411043776397e+07  1.8108420361547001e+07  1.8167623576172248e+07  1.8635858300544526e+07  1.8617409835774548e+07  1.8648907318096817e+07  1.8596839466243967e+07  1.8035816896430064e+07  1.8000428954261921e+07  1.8025462299029082e+07  1.8715625918235675e+07  2.0307229978641350e+07  2.0376119927051961e+07  2.0454754537340119e+07  1.9286940151407808e+07  1.9974047926199902e+07  1.8655577744775094e+07  1.8519831164222699e+07  1.8478718111253642e+07  1.8551965833083756e+07  1.9621988263571803e+07  1.9355781498704072e+07  1.9426578677294932e+07  1.8000062127383146e+07  1.7999420293241307e+07  1.8022272863504890e+07  1.8682300041430332e+07  1.8749405716769498e+07  1.8724110763442218e+07  1.8645866404722404e+07  1.9814035041378818e+07  1.8183506266372364e+07  1.8164888052631773e+07  1.8179672285091862e+07  1.9203153094833650e+07  1.9182283282722272e+07  1.9190111694452215e+07  1.8339300874809891e+07  1.8390830244330902e+07  1.8433510486421254e+07  1.8117436760133687e+07  1.8162607503003690e+07  1.8145341109984178e+07  1.9254271624721404e+07  1.9318273812228374e+07  1.9283555699857030e+07  1.9237443940431532e+07  1.9242672598315924e+07  1.9253222746963862e+07  1.9227472726369273e+07  1.8465601460211437e+07  1.8169601217266925e+07  1.8436395970675077e+07  1.9926085281718176e+07  1.8584553140161555e+07  1.8564558828272160e+07  1.7985698506734114e+07  1.7979497029418379e+07  1.8045960687297493e+07  1.8052861830169283e+07  1.7993104272024386e+07  1.7980490376214579e+07  1.8748781884877019e+07  1.8666300558842223e+07  1.8726745919383533e+07  1.9309833614438388e+07  1.9383301924816687e+07  1.8235313488312699e+07  1.8319684585576266e+07  1.8181448275910411e+07  1.8237059240405682e+07  1.8296782502719730e+07  1.8168520489313815e+07  1.8051711765280087e+07  1.8053927101341229e+07  1.8354848779297829e+07  2.0475391572715554e+07  1.8689094529796738e+07  1.8770299759707890e+07  1.8710082736779708e+07  2.0092070360100839e+07  2.0085624884287771e+07  2.0031585439184748e+07  1.8624386668141622e+07  1.8718794492395125e+07  1.8631799004714787e+07  1.8423306648476344e+07  1.8777622405260470e+07  1.8783140543903865e+07  1.8061957754089471e+07  1.8106168749979675e+07  1.9683078009549789e+07  1.9650289431250896e+07  1.9747397932162631e+07  1.8148234207750656e+07  1.8151769637380879e+07  </DataArray> 
</PointData> 
</Piece>
</UnstructuredGrid>
</VTKFile>