<?xml version="1.0"?>
<VTKFile type="UnstructuredGrid"  version="0.1"  >
<UnstructuredGrid>
<Piece  NumberOfPoints="784" NumberOfCells="1320">
<Points>
<DataArray  type="Float64"  NumberOfComponents="3"  format="ascii">266913.131276 586512.314988 0  266738.13716 587762.325998 0  266363.132677 589012.328643 0  266175.641078 590169.601714 0  265666.575631 591040.7699119999 0  264875.64001 591687.766419 0  264900.636161 591845.049083 0  266088.14152 592012.3229499999 0  265561.959259 592661.17101 0  264288.136855 593037.368683 0  263865.194033 593999.8486949999 0  263850.641856 593236.729596 0  263625.634872 592756.525286 0  262689.574249 593299.848918 0  262475.636737 594003.0907310001 0  261934.554452 594340.929792 0  261725.631329 594932.094409 0  261729.256443 595728.498809 0  262138.136044 595012.330523 0  262288.141035 596262.333669 0  261488.994028 597511.480605 0  261234.15567 598316.338928 0  260815.635063 599014.863821 0  261400.643658 599389.7367680001 0  261322.963374 600022.185065 0  261119.455248 600931.061306 0  261607.436504 601293.0629359999 0  260807.446929 602089.899812 0  260025.642878 602988.868697 0  259613.135827 603937.3854499999 0  259050.643123 604100.987861 0  258411.880065 603988.6335979999 0  257764.357469 604449.872569 0  257971.239668 605320.429125 0  258041.396867 605740.635381 0  257188.143339 606987.394312 0  256038.141198 608112.3554550001 0  254788.141633 609087.4026939999 0  253588.140656 609812.362881 0  252338.135706 609737.4048949999 0  251088.138116 609787.404055 0  249963.12851 610287.399466 0  248613.130524 610462.365857 0  247363.132198 610687.407659 0  246113.130532 610837.411551 0  245832.347438 610918.209918 0  245016.946433 610958.5639439999 0  244313.129646 610762.372259 0  244400.622144 611378.093316 0  243939.669208 612460.8930899999 0  242960.649733 611984.892792 0  242170.381438 611919.647351 0  241888.122919 611112.375656 0  241393.380757 610467.6456149999 0  240594.157528 611306.369822 0  240525.621947 610804.648112 0  240363.123632 610512.3745050001 0  239113.123247 610262.374278 0  239813.12126 609037.412459 0  240588.122952 607812.368199 0  241013.119545 606625.9534560001 0  241454.373249 605724.888025 0  242238.120107 604687.3993 0  243088.121248 603462.362766 0  242860.319451 603007.3932640001 0  241563.116617 603812.361344 0  241778.400913 604327.642217 0  242059.837234 604824.879102 0  241475.620201 604923.2402390001 0  241462.182234 605449.881372 0  240906.219606 605674.888222 0  240241.856192 606891.125066 0  239891.734044 607841.012479 0  239048.653431 608724.889805 0  238118.054545 608974.895967 0  238888.111029 607337.406468 0  239738.119992 606212.362729 0  240288.12044 605687.4075229999 0  240380.212307 604729.521696 0  239347.309632 604603.204501 0  238888.112036 604387.408787 0  237913.11173 604687.401386 0  236784.172023 604499.882783 0  236883.408793 603717.08334 0  236154.933927 603595.565605 0  235688.103943 602912.369264 0  235763.108033 601662.366516 0  236363.110805 600412.35884 0  236738.107995 599162.356577 0  236525.607944 598482.2412899999 0  236138.109208 599362.357613 0  235725.063048 600325.4466510001 0  235091.948926 601408.5220979999 0  235188.10921 600312.366344 0  234375.602405 600833.9674270001 0  234663.109308 599912.358011 0  234138.105122 600062.365644 0  233955.307245 599029.561063 0  233338.103791 598387.401556 0  233988.09795 597862.356384 0  235138.101489 596637.3947750001 0  235563.1039 595387.392428 0  236513.103639 594212.356312 0  237163.10684 592987.3929869999 0  238313.103031 591862.3515540001 0  239513.107028 590812.3512640001 0  240638.102135 589787.387271 0  241463.109549 588587.378486 0  242294.489816 587443.735215 0  242913.101099 586512.341804 0  243544.066915 585474.859604 0  243040.448415 585184.975583 0  242438.10214 585337.38015 0  241313.102353 586562.339499 0  240538.107104 587787.382449 0  240114.641085 588588.939407 0  239388.100256 589437.382238 0  238188.104456 590512.346358 0  236938.100507 591362.349798 0  235813.10453 592537.396388 0  234864.502938 593178.7753880001 0  234463.097651 592862.357267 0  235113.0965 591662.3545979999 0  235713.101522 590412.346099 0  235777.688431 589976.7582779999 0  234943.583145 590706.265132 0  234462.482256 591490.2841159999 0  233801.497784 592112.940187 0  233388.099101 591787.394208 0  234013.093099 590437.393065 0  234776.217248 587148.7548100001 0  235163.093726 586562.3486189999 0  235313.098918 585483.229012 0  235250.59732 584662.298153 0  235588.093896 583337.379493 0  236329.432041 582199.858992 0  237188.096234 581462.3349939999 0  237463.088521 580212.335511 0  238350.592558 579057.652616 0  238591.415797 578574.847681 0  238313.094106 577612.328905 0  239229.696732 577695.769664 0  240195.161018 577513.008613 0  240614.996733 577149.8518770001 0  240663.091715 577412.332622 0  240288.092486 578662.334085 0  239942.357258 579508.095811 0  240438.100019 580212.3334220001 0  241338.095553 580387.375355 0  241238.099828 579137.369157 0  241788.097003 577887.370889 0  241983.554649 577241.9220939999 0  242054.178239 576927.8105029999 0  242588.100699 575737.366175 0  243149.324833 574898.583978 0  243695.278626 573919.517981 0  244268.494418 573724.8454239999 0  244995.134063 573930.2767810001 0  245417.314363 573391.601898 0  243450.599125 571859.479773 0  245776.797908 572599.8353060001 0  246779.639852 572973.285167 0  248034.741935 573186.082054 0  249413.10651 573162.3205520001 0  250496.922226 573271.1521899999 0  251613.105126 573237.3551319999 0  252421.824577 572846.032906 0  253256.245022 572580.4733130001 0  253739.471933 571960.9547369999 0  254174.511864 572149.8346569999 0  254484.944333 571684.194807 0  254384.108649 570891.346712 0  254344.002752 570218.26407 0  255025.609604 570829.0294979999 0  255715.005913 570489.264586 0  256218.846343 570774.828355 0  256834.349083 570508.5908 0  257390.092515 570014.308325 0  257624.431042 568493.478911 0  259355.811717 569380.021819 0  260033.372814 569617.066669 0  262679.741751 570320.699974 0  263289.115756 569524.817815 0  263463.114338 570512.301061 0  264638.198419 570687.3443539999 0  265058.220065 571334.378467 0  265447.561421 572077.90485 0  265488.125257 573137.3446020001 0  265131.937715 573963.293593 0  265432.389648 575093.068786 0  265638.122314 576338.029955 0  265750.630817 577371.8281319999 0  265738.570663 578561.9098850001 0  265875.630866 579139.630549 0  266213.129247 579862.311842 0  266563.130472 581112.314509 0  266238.135356 582362.310259 0  265938.12863 583612.320897 0  265738.131342 584762.3210189999 0  266875.638633 585365.358768 0  264018.7239399826 593650.4646671159 0  262236.3944351029 595831.1252656333 0  241846.246678 605206.1436625 0  240200.622106 608424.8903290001 0  240943.4862974102 610939.7757535663 0  236550.6094 599787.3577085 0  238528.1212051503 608102.9081793013 0  244413.4891967989 572609.5960859474 0  236382.0474488751 598808.3067022427 0  235369.601910944 600933.5380148316 0  235413.099011 591037.3503485 0  235446.2251831186 590266.6553871984 0  240475.5921005 578037.3333535 0  240413.173949154 577324.4280286073 0  240574.037899 606283.0066440001 0  263857.9179445 593618.2891454998 0  264153.4303974913 593343.916675058 0  242042.1833925 604946.7714812499 0  241650.3099635 605465.51584375 0  244613.6985165 572229.6575395 0  236631.8579695 598822.2989335 0  235140.029068 600860.444221 0  241767.7287175 604874.0596705 0  242140.15174975 604817.0853906251 0  234781.8558075 600573.1668855001 0  242091.167571125 604881.9284359375 0  234519.3558565 600373.162719 0  254604.8337712102 583989.0014118921 0  250699.5846056537 594617.3297041012 0  250540.4796469513 602258.2940568649 0  248483.7490186612 580334.7345534252 0  258549.2190328319 577893.951823392 0  257067.0067473103 590016.5327808241 0  243285.0921999099 596333.923437875 0  248333.1386145258 589098.0389905117 0  256142.8445072741 595883.3911551933 0  260245.1368072523 583315.2785712298 0  253472.3380211276 578932.2908163272 0  246432.3347504817 599884.5019511909 0  261555.9240922556 588041.186709004 0  247293.1100123104 605823.8307887657 0  246458.2798550911 593168.8646574575 0  252840.0183145193 588226.5564648228 0  249828.2874404451 584740.7888937403 0  255409.5660975206 600458.8956828594 0  260819.9733392385 574219.403683011 0  252584.2262054711 605722.6603825617 0  254049.8830611471 592547.4852571967 0  250015.4356193061 598425.2225922942 0  245872.072249477 577604.9761853142 0  262002.1583249522 579753.4663046852 0  257732.6630933878 586227.970805314 0  250242.5556457866 577017.3316409125 0  244921.6453001869 581816.6358421432 0  256520.3890639471 580904.824006648 0  240779.0970645865 599524.6679555867 0  257100.1829219198 574459.5922545703 0  239912.2630002034 595231.1172704464 0  244703.0875078634 590068.6945953515 0  242549.5490268674 592874.3693043783 0  251586.0465921376 581796.2215047925 0  246643.189997516 596527.447801719 0  251049.7658069622 591057.6752245198 0  253014.5731561695 596998.6601086652 0  238680.2197353724 584542.2309791476 0  259715.365803504 591937.1938619445 0  254097.157218761 575731.4494927844 0  246806.6408589328 586139.0877599345 0  246136.1179750556 602959.471719323 0  253520.7033332401 602835.180253843 0  244125.4295793909 607538.9817227355 0  252546.8895354472 599881.3279113505 0  258289.0983523553 600397.640191779 0  247518.7952199645 583037.3718217331 0  263140.3959879661 582529.2228421422 0  262894.8586894067 585442.3590432997 0  256968.6320599076 593040.7691844478 0  243573.0187527719 600218.2795730785 0  258888.5766127351 595139.7745218446 0  262588.7569809347 576734.8569237856 0  259318.4257992262 580601.2540325444 0  249963.3812725965 607065.7205847671 0  257494.5307999607 583482.5893534871 0  258906.4757205145 572278.8089438241 0  237751.446593475 587300.5805003279 0  255142.4708720699 604956.7580261135 0  258485.4978753244 597756.9250383095 0  255516.7820591553 587791.39641967 0  239758.4692108706 601926.8203218657 0  255873.0092222999 577739.5085867504
[...]
<PointData  Scalars="f_32-0"> 
<DataArray  type="Float64"  Name="f_32-0"  format="ascii">1.3979858830867648e+07  1.3996795132140517e+07  1.4018118081687342e+07  1.4037267360321417e+07  1.4051145611826908e+07  1.4073262687665343e+07  1.4081266332083624e+07  1.4087827069354393e+07  1.4087814609087195e+07  1.4092978380207429e+07  1.4095856246515431e+07  1.4095155677820317e+07  1.4099650309916709e+07  1.4148926467124145e+07  1.4188717660398602e+07  1.4229547337527808e+07  1.4291927862115655e+07  1.4369472692354353e+07  1.4379626539859148e+07  1.4391842797671819e+07  1.4458992387015898e+07  1.4514927163121885e+07  1.4581851972834192e+07  1.4619620134734213e+07  1.4638018743929166e+07  1.4678632710502390e+07  1.4690583662150921e+07  1.4712130347557968e+07  1.4757003567314621e+07  1.4788905361612042e+07  1.4799016721652865e+07  1.4827846799259057e+07  1.4901036677063402e+07  1.4961012951895237e+07  1.4971931873657074e+07  1.5019776070492495e+07  1.5073130081249811e+07  1.5120939057000859e+07  1.5152486130913541e+07  1.5180509033209544e+07  1.5221804322099894e+07  1.5261562905593317e+07  1.5299172657571727e+07  1.5334385808151083e+07  1.5366759812678525e+07  1.5373575757274743e+07  1.5390849633025184e+07  1.5411816738872610e+07  1.5426790252259359e+07  1.5433333889352245e+07  1.5434908839817541e+07  1.5436384742954155e+07  1.5436424075519498e+07  1.5439408268521493e+07  1.5445041957951650e+07  1.5444638270347359e+07  1.5444733982061474e+07  1.5446835746114818e+07  1.5441159931546811e+07  1.5420544025385637e+07  1.5393380963987134e+07  1.5368143188063961e+07  1.5323123735049611e+07  1.5241691887027023e+07  1.5217553511055095e+07  1.5269761394599404e+07  1.5290664623071712e+07  1.5296451989923190e+07  1.5302561823699329e+07  1.5312357838613752e+07  1.5326565965116583e+07  1.5378724397792716e+07  1.5395674793564713e+07  1.5403622789457558e+07  1.5405219113878170e+07  1.5396624061585002e+07  1.5370989867520543e+07  1.5340966892367490e+07  1.5299101962443570e+07  1.5287360567081619e+07  1.5287516477741988e+07  1.5289804998734264e+07  1.5290369049539335e+07  1.5287923489677228e+07  1.5286208480892146e+07  1.5283957732030101e+07  1.5275001874586025e+07  1.5251371662743982e+07  1.5213427411975442e+07  1.5199256217542395e+07  1.5218354016731694e+07  1.5227905210362572e+07  1.5231085840668455e+07  1.5228480918525044e+07  1.5229621691721361e+07  1.5226882767855614e+07  1.5226307456958987e+07  1.5222420303759363e+07  1.5220492649758680e+07  1.5215922907024255e+07  1.5177748949984144e+07  1.5133642289275205e+07  1.5070026755788129e+07  1.5000919723890696e+07  1.4908476419915106e+07  1.4785911360409811e+07  1.4644429356518351e+07  1.4512276691443553e+07  1.4416323203861963e+07  1.4364990415226975e+07  1.4361892297369709e+07  1.4443177508031379e+07  1.4544995858958643e+07  1.4712449499557706e+07  1.4802101159524314e+07  1.4838557223828163e+07  1.4871998504196048e+07  1.4910880199128050e+07  1.4939164891980449e+07  1.4959331581256842e+07  1.4963819518877737e+07  1.4963863272450183e+07  1.4956949097638760e+07  1.4938458405979889e+07  1.4931936269110421e+07  1.4945641537420146e+07  1.4954422687509445e+07  1.4957207140045421e+07  1.4957209020869160e+07  1.4948136393840853e+07  1.4890035470042178e+07  1.4870552973150602e+07  1.4835799969274072e+07  1.4814431396400377e+07  1.4783762542633744e+07  1.4749977270515611e+07  1.4711374558460327e+07  1.4681208854020601e+07  1.4668990682560557e+07  1.4670581952075467e+07  1.4673175110951222e+07  1.4672723041437376e+07  1.4673715357005613e+07  1.4674316734056752e+07  1.4674242128810354e+07  1.4669133405895649e+07  1.4650315197933890e+07  1.4589462661445994e+07  1.4445956735690666e+07  1.4325882630531361e+07  1.4254383346174048e+07  1.4222812830988187e+07  1.4211134697980862e+07  1.4170629858571667e+07  1.4144103969353234e+07  1.4123869162050907e+07  1.4116712410681099e+07  1.4093707853198554e+07  1.4071947160481304e+07  1.4081834820619887e+07  1.4067542048132904e+07  1.4039316276385393e+07  1.3978473978682671e+07  1.3906434114801079e+07  1.3853351240321590e+07  1.3804276831436498e+07  1.3784972713478291e+07  1.3786588347462518e+07  1.3799461653548397e+07  1.3809219125187322e+07  1.3836768265777051e+07  1.3855219911784288e+07  1.3857605664656002e+07  1.3857295889126923e+07  1.3865394456747942e+07  1.3873076281648219e+07  1.3890829846316366e+07  1.3909166721919028e+07  1.3921549215483600e+07  1.3921717210971020e+07  1.3923905053580301e+07  1.3932072780349916e+07  1.3933747731595224e+07  1.3932540795791553e+07  1.3931188681954071e+07  1.3929262393618047e+07  1.3925751020894291e+07  1.3919255461598190e+07  1.3907998268862469e+07  1.3888932625798944e+07  1.3871270925980330e+07  1.3860260004905811e+07  1.3855384811752489e+07  1.3857676592725353e+07  1.3864096647999031e+07  1.3876650972297825e+07  1.3892309733103439e+07  1.3914736610249838e+07  1.3945548945035530e+07  1.3968429456925096e+07  1.4095654590306066e+07  1.4383250238811785e+07  1.5348453575840989e+07  1.5433132373371648e+07  1.5444364802370284e+07  1.5233718659720689e+07  1.5402949505258765e+07  1.4078651845563293e+07  1.5208121956131769e+07  1.5230450392323826e+07  1.4949048819317957e+07  1.4936905551951248e+07  1.4672996452262083e+07  1.4674190427727262e+07  1.5357042927067224e+07  1.4095651967491018e+07  1.4095103696298230e+07  1.5336489756512400e+07  1.5359133903640199e+07  1.4078653381867552e+07  1.5203083610586189e+07  1.5230452111365473e+07  1.5297377879978016e+07  1.5330020146901708e+07  1.5229139679178890e+07  1.5333299491570001e+07  1.5229123536344193e+07  1.3749513088168314e+07  1.4334700164636223e+07  1.4941697352770023e+07  1.3946719653540811e+07  1.3753988805616027e+07  1.3818611246306160e+07  1.4893616695107181e+07  1.4098823619209493e+07  1.4376251991335688e+07  1.3834914114378998e+07  1.3643797063544199e+07  1.4928533146483662e+07  1.3939230513764502e+07  1.5235633084274609e+07  1.4427565722297218e+07  1.3840386340956487e+07  1.3999668555258749e+07  1.4682172534329727e+07  1.3888568520797312e+07  1.5084567022848545e+07  1.4100229170037422e+07  1.4617435516517848e+07  1.4065280261236265e+07  1.3843946731595129e+07  1.3699519943089532e+07  1.3807839176736092e+07  1.4238827591825113e+07  1.3724706547643801e+07  1.5153186219420055e+07  1.3793903292205695e+07  1.4997001124632366e+07  1.4334745500235941e+07  1.4701995811587660e+07  1.3849658794059802e+07  1.4700697864650676e+07  1.4032888411513709e+07  1.4460987792258767e+07  1.4744279427375522e+07  1.4073943122589771e+07  1.3653868299694261e+07  1.4177157865464481e+07  1.5132248550274692e+07  1.4904769776368840e+07  1.5365639927236775e+07  1.4694472804253608e+07  1.4669492966081116e+07  1.4101583444377208e+07  1.3882324596625527e+07  1.3921659648632338e+07  1.4109494577803092e+07  1.5089225159450544e+07  1.4319651266836926e+07  1.3864689003130525e+07  1.3792881575092273e+07  1.5203621738817144e+07  1.3749184850598553e+07  1.3894887637949813e+07  1.4852544383291021e+07  1.4987634651186408e+07  1.4506852502007298e+07  1.3706226596807605e+07  1.5247724698455483e+07  1.3625705194943152e+07  1.4045706186502151e+07  1.4484362301208170e+07  1.4254574715595258e+07  1.4224984051278947e+07  1.3744713580942091e+07  1.3986683369265502e+07  1.3875965428005416e+07  1.3800405527154213e+07  1.3960910747799156e+07  1.3850686860873029e+07  1.3813371895669740e+07  1.5325616436471974e+07  1.5096025556965159e+07  1.3864351279634209e+07  1.5272616285483606e+07  1.4913972337297378e+07  1.4856262101885004e+07  1.5132383347010562e+07  1.4656503911100388e+07  1.4251029542004988e+07  1.4516150691047233e+07  1.4793950265410868e+07  1.3975127477894913e+07  1.5075465070008691e+07  1.3751856703435531e+07  1.4302705150625831e+07  1.3919340570217283e+07  1.3913765293523582e+07  1.4468292432376141e+07  1.5035885525385655e+07  1.4220158678639878e+07  1.4673059630140495e+07  1.4279887118699156e+07  1.4857037005030220e+07  1.3841538792224580e+07  1.4075120893432071e+07  1.3968418622105189e+07  1.5111321123160284e+07  1.4469999558593629e+07  1.3862590765610067e+07  1.5134377577788524e+07  1.4170600217582319e+07  1.5217176770427756e+07  1.3896123818083696e+07  1.5337425996020654e+07  1.5332821665039835e+07  1.4177041377487715e+07  1.4083972284037763e+07  1.5335237244214406e+07  1.5368482966148939e+07  1.5184966371733347e+07  1.5207474868063455e+07  1.4923740951318014e+07  1.3817917601573555e+07  1.5163911370033793e+07  1.4989399182464680e+07  1.4205298609393248e+07  1.4079759770638594e+07  1.4033703383002911e+07  1.5365505822473474e+07  1.5331787237113338e+07  1.4238910977336701e+07  1.5275175720360775e+07  1.5287770568006579e+07  1.5310822254641118e+07  1.5371159382895071e+07  1.4355572233124627e+07  1.4039855088545440e+07  1.4928799735794006e+07  1.3871922272363808e+07  1.4059725155046279e+07  1.3854898543095384e+07  1.4887120995820286e+07  1.5426630020060062e+07  1.4803156804174270e+07  1.4937072069055323e+07  1.5190906918582728e+07  1.4492904932476327e+07  1.3915215838054150e+07  1.4931069102362417e+07  1.3739783497069338e+07  1.4121216853449350e+07  1.5205605064741664e+07  1.5171254180792905e+07  1.4657869612087896e+07  1.5425580101945156e+07  1.3864505540018814e+07  1.5240684449534178e+07  1.4481327555572107e+07  1.3924471926078942e+07  1.3821361537889116e+07  1.3738695643732216e+07  1.4782940373594724e+07  1.5202412751241282e+07  1.5166183588914117e+07  1.4648839992559154e+07  1.5354373998272832e+07  1.4332976447956683e+07  1.4074517051022956e+07  1.4074581310656084e+07  1.3899107286333771e+07  1.5334935320641574e+07  1.5342627875486575e+07  1.5345713592314744e+07  1.4975074962517483e+07  1.5152116832649948e+07  1.5339977155697536e+07  1.5282399812058991e+07  1.4828829101878241e+07  1.5443121228670310e+07  1.5441885257343607e+07  1.4566611996544410e+07  1.3864117823801285e+07  1.4664393252535008e+07  1.5222863550913654e+07  1.4177995732403660e+07  1.4734259725441646e+07  1.5429651819432802e+07  1.4633634710374959e+07  1.4841236080503505e+07  1.3914633029273471e+07  1.4213375599882705e+07  1.4189566674173057e+07  1.4238782125763731e+07  1.5220269646939021e+07  1.4078280369696209e+07  1.4088678585148774e+07  1.4066396326579351e+07  1.4086922149860619e+07  1.4044491335949274e+07  1.3928745810105065e+07  1.3920272777669476e+07  1.4093965516294748e+07  1.4172923760880338e+07  1.4962451084669696e+07  1.4962016921529956e+07  1.5438136515632337e+07  1.4530377484250801e+07  1.4400738820852902e+07  1.4274210411522029e+07  1.4319376175050257e+07  1.4373722048447786e+07  1.4494723887345625e+07  1.4396406189823858e+07  1.4477903188119678e+07  1.4641320283037720e+07  1.4511377986127354e+07  1.4594482009973735e+07  1.4724403751312727e+07  1.4660961609307840e+07  1.4348415448729463e+07  1.4477614160215395e+07  1.3940342925680667e+07  1.3972126164094461e+07  1.3925165658474011e+07  1.3880457158451106e+07  1.3889696964844365e+07  1.3827142928366311e+07  1.3861974440307545e+07  1.3835898302699139e+07  1.3768346009746604e+07  1.3770994340548061e+07  1.3876317471368181e+07  1.3865141829383001e+07  1.3867929297736738e+07  1.3856542237550164e+07  1.3862120608834291e+07  1.3856088818888560e+07  1.3855200855388094e+07  1.3857279354765996e+07  1.3860719855013262e+07  1.3856292880480828e+07  1.3863499342955461e+07  1.3858760082958352e+07  1.3870986898807207e+07  1.3893337374511402e+07  1.3878821733067604e+07  1.3681488838772641e+07  1.3744033093272094e+07  1.3724563241800200e+07  1.3744930171826484e+07  1.4449466496393172e+07  1.4385380687373986e+07  1.4297579114186278e+07  1.4390156725814767e+07  1.4822827150986519e+07  1.5025739738878423e+07  1.4898359447563749e+07  1.5008310093587991e+07  1.4028555738307757e+07  1.3874801908866083e+07  1.3917281746888641e+07  1.4003013775456751e+07  1.3813487557785915e+07  1.3713411313734062e+07  1.3758803553145064e+07  1.3768744234811487e+07  1.3684665892583881e+07  1.3803166085781125e+07  1.3947026051270179e+07  1.3951658599015020e+07  1.3740832596235335e+07  1.3828628372481747e+07  1.3794496513042917e+07  1.4948420352921231e+07  1.4799822833660444e+07  1.4041584193997124e+07  1.4131674092189545e+07  1.4135808026188124e+07  1.4036705481615402e+07  1.4152857047133679e+07  1.4177526861318788e+07  1.4240410100539142e+07  1.4419691241081176e+07  1.4336154298956502e+07  1.3841794154653627e+07  1.3865195606575496e+07  1.3877212968469216e+07  1.3816043513382630e+07  1.3703625835858565e+07  1.3666771829642378e+07  1.3743149760631904e+07  1.3614617192404883e+07  1.3610426809703436e+07  1.3692470687555250e+07  1.3713146755982267e+07  1.4773385899437908e+07  1.5032643012282601e+07  1.4884232215166513e+07  1.5057264633720305e+07  1.5189635247462800e+07  1.4579433621092819e+07  1.4308975228219492e+07  1.4548732956469299e+07  1.4437631016354445e+07  1.3770518188427230e+07  1.3848523193908304e+07  1.3898671951355645e+07  1.3786823346624762e+07  1.4793923563969154e+07  1.4680818818929434e+07  1.4675596467326535e+07  1.4592605839877551e+07  1.3855286641535360e+07  1.3877105948164340e+07  1.4065496202357749e+07  1.4089430532022685e+07  1.3980313077646572e+07  1.4638882111580733e+07  1.4518264777857088e+07  1.4743267255600438e+07  1.4518678958519410e+07  1.4137715653577099e+07  1.4008516636363275e+07  1.3986777199809261e+07  1.4061079227182811e+07  1.4050090507404698e+07  1.4104358632172592e+07  1.3859312299254712e+07  1.3848744150869774e+07  1.3823666789318008e+07  1.3836823645116776e+07  1.3854291978158060e+07  1.3852260952346375e+07  1.3720207938472457e+07  1.3666676216603493e+07  1.3740805029124184e+07  1.3667727415555047e+07  1.3701517290198611e+07  1.3790859580372522e+07  1.3883364819591517e+07  1.3861318254629403e+07  1.3755363383351425e+07  1.3834236109275101e+07  1.4165984170808697e+07  1.4360541890727643e+07  1.4233214971839441e+07  1.4157362883397698e+07  1.3754907914421640e+07  1.3752648928941630e+07  1.3663591968690719e+07  1.3721320040503096e+07  1.3704802791379211e+07  1.3857151093862891e+07  1.3694149447224446e+07  1.3818762620616555e+07  1.3803811288576623e+07  1.3838865524866547e+07  1.3756413989652742e+07  1.4261408590376064e+07  1.4299040700557427e+07  1.4387246639990259e+07  1.4434570630935589e+07  1.4682706367316233e+07  1.3788468425243629e+07  1.3823246675311716e+07  1.4582062022475408e+07  1.4134889021267572e+07  1.3964188053874509e+07  1.3966572771631293e+07  1.4097019548886867e+07  1.4567108421148250e+07  1.4490599915355736e+07  1.4698437234070588e+07  1.4695033975146417e+07  1.4081008919051219e+07  1.3934439171984963e+07  1.3619600343474085e+07  1.3693233031927558e+07  1.3692975033758681e+07  1.4079487742485054e+07  1.4225382999183411e+07  1.5000691697962016e+07  1.5101588494559545e+07  1.4806488768526755e+07  1.5003579417593520e+07  1.4845576125909196e+07  1.4770665313224865e+07  1.4588846748627074e+07  1.4594971611465091e+07  1.4089178946856398e+07  1.3872506471138041e+07  1.3957452056442739e+07  1.4184302158266544e+07  1.3857946680590799e+07  1.3855312220715912e+07  1.3865248951128887e+07  1.3782350974955009e+07  1.3784562666137706e+07  1.3782099561465221e+07  1.3705485481176330e+07  1.3715150774157746e+07  1.3953543297412811e+07  1.4424146453996075e+07  1.4489299736568540e+07  1.4524592976973940e+07  1.4561713248274177e+07  1.4231637303173279e+07  1.4197935636642106e+07  1.4153304786613118e+07  1.3808553743460448e+07  1.3851986009127084e+07  1.3885485451556001e+07  1.3934637845785791e+07  1.3911164958342399e+07  1.3826539904782197e+07  1.3916230978790054e+07  1.3810633727360830e+07  1.4971777743790863e+07  1.3858213126531694e+07  1.3980549774317689e+07  1.4225458511884693e+07  1.4323516984813737e+07  1.4572009028862726e+07  1.4495549691456564e+07  1.3857797921124240e+07  1.3879607390184034e+07  1.3778148466207579e+07  1.4421580696835170e+07  1.3855331960181082e+07  1.4570015800738839e+07  1.3794614447350631e+07  1.3728220907004220e+07  1.4596756223681977e+07  1.3701663408896716e+07  1.4417874578482531e+07  1.3787771907224854e+07  1.3726424358581202e+07  1.3750997671072604e+07  1.3720243970697375e+07  1.3781380103817878e+07  1.4159051803768657e+07  1.3663883395466253e+07  1.3689074168211207e+07  1.3673945993711725e+07  1.4960115430145422e+07  1.3930643520224666e+07  1.3805214076985303e+07  1.3811740912072981e+07  1.3841607781711223e+07  1.3861514746537436e+07  1.4525091724407010e+07  1.4558478899854684e+07  1.3842504004348833e+07  1.3850409459892392e+07  1.3677678448342009e+07  1.3666329217106668e+07  1.3752504219451075e+07  1.4162257407977751e+07  1.4027451482148763e+07  1.4080526221077574e+07  1.3986164614309331e+07  1.4111064991954725e+07  1.3665561468475226e+07  1.3670111833429491e+07  1.3671967430717502e+07  1.3672133485157583e+07  1.4638566012756260e+07  1.3780615187270133e+07  1.3773775107274009e+07  1.3788090810649656e+07  1.3718860446547888e+07  1.3736656719437076e+07  1.3740776582458781e+07  1.3691824767148513e+07  1.3611855945262559e+07  1.3650542082452845e+07  1.3617877531286882e+07  1.3750271649150677e+07  1.4812639557911454e+07  1.4867604464647686e+07  1.4929017487035759e+07  1.4644059406996537e+07  1.4548211573654793e+07  1.3802981553857869e+07  1.3912169076055983e+07  1.3880310320602909e+07  1.3943941879264034e+07  1.4266679571778543e+07  1.4226083369686186e+07  1.4250829483829709e+07  1.3823198829959385e+07  1.3824042510089671e+07  1.3831220298490375e+07  1.4065468924351616e+07  1.4115650024081524e+07  1.4079654759597648e+07  1.4024761990456479e+07  1.4392522704109440e+07  1.3854507850504892e+07  1.3853512314937815e+07  1.3853987713852983e+07  1.4544157832404777e+07  1.4529733836527191e+07  1.4533179444723876e+07  1.3811475963223908e+07  1.3849307611302912e+07  1.3887274839542994e+07  1.3718600213636877e+07  1.3860178589225575e+07  1.3859273691624999e+07  1.4614811513613345e+07  1.4678294134348810e+07  1.4644971875911798e+07  1.4598597943812847e+07  1.4603436442208121e+07  1.4614245860069409e+07  1.4581569932729190e+07  1.3918715979423026e+07  1.3856287911040477e+07  1.3670781276627906e+07  1.4479655073968437e+07  1.3956934070100149e+07  1.3946810836775286e+07  1.3806345408882739e+07  1.3693784227130678e+07  1.3800118894392986e+07  1.3757962156566683e+07  1.3662985203111190e+07  1.3681817164570929e+07  1.3752190882963991e+07  1.3715623435579449e+07  1.3744018646512510e+07  1.4075627414501563e+07  1.4199712345607061e+07  1.3852108452784656e+07  1.3863195258436145e+07  1.3647817283115836e+07  1.3695460124632681e+07  1.3725733491581395e+07  1.3648975816000927e+07  1.3629881217018725e+07  1.3605346831553504e+07  1.3767532582616827e+07  1.4942484664606141e+07  1.3773842001835959e+07  1.3815873297559327e+07  1.3820188159790888e+07  1.4631569377441814e+07  1.4633343184200617e+07  1.4587819904886181e+07  1.4020698367583057e+07  1.4105237012394357e+07  1.4019618490407370e+07  1.3872773060160398e+07  1.4121354519378126e+07  1.4154084803794308e+07  1.3655574128607772e+07  1.3693586893816894e+07  1.4318520596609185e+07  1.4287752080467148e+07  1.4351049521180049e+07  1.3689876279574106e+07  1.3855381952727729e+07  </DataArray> 
</PointData> 
</Piece>
</UnstructuredGrid>
</VTKFile>