<?xml version="1.0"?>
<VTKFile type="UnstructuredGrid"  version="0.1"  >
<UnstructuredGrid>
<Piece  NumberOfPoints="784" NumberOfCells="1320">
<Points>
<DataArray  type="Float64"  NumberOfComponents="3"  format="ascii">266913.131276 586512.314988 0  266738.13716 587762.325998 0  266363.132677 589012.328643 0  266175.641078 590169.601714 0  265666.575631 591040.7699119999 0  264875.64001 591687.766419 0  264900.636161 591845.049083 0  266088.14152 592012.3229499999 0  265561.959259 592661.17101 0  264288.136855 593037.368683 0  263865.194033 593999.8486949999 0  263850.641856 593236.729596 0  263625.634872 592756.525286 0  262689.574249 593299.848918 0  262475.636737 594003.0907310001 0  261934.554452 594340.929792 0  261725.631329 594932.094409 0  261729.256443 595728.498809 0  262138.136044 595012.330523 0  262288.141035 596262.333669 0  261488.994028 597511.480605 0  261234.15567 598316.338928 0  260815.635063 599014.863821 0  261400.643658 599389.7367680001 0  261322.963374 600022.185065 0  261119.455248 600931.061306 0  261607.436504 601293.0629359999 0  260807.446929 602089.899812 0  260025.642878 602988.868697 0  259613.135827 603937.3854499999 0  259050.643123 604100.987861 0  258411.880065 603988.6335979999 0  257764.357469 604449.872569 0  257971.239668 605320.429125 0  258041.396867 605740.635381 0  257188.143339 606987.394312 0  256038.141198 608112.3554550001 0  254788.141633 609087.4026939999 0  253588.140656 609812.362881 0  252338.135706 609737.4048949999 0  251088.138116 609787.404055 0  249963.12851 610287.399466 0  248613.130524 610462.365857 0  247363.132198 610687.407659 0  246113.130532 610837.411551 0  245832.347438 610918.209918 0  245016.946433 610958.5639439999 0  244313.129646 610762.372259 0  244400.622144 611378.093316 0  243939.669208 612460.8930899999 0  242960.649733 611984.892792 0  242170.381438 611919.647351 0  241888.122919 611112.375656 0  241393.380757 610467.6456149999 0  240594.157528 611306.369822 0  240525.621947 610804.648112 0  240363.123632 610512.3745050001 0  239113.123247 610262.374278 0  239813.12126 609037.412459 0  240588.122952 607812.368199 0  241013.119545 606625.9534560001 0  241454.373249 605724.888025 0  242238.120107 604687.3993 0  243088.121248 603462.362766 0  242860.319451 603007.3932640001 0  241563.116617 603812.361344 0  241778.400913 604327.642217 0  242059.837234 604824.879102 0  241475.620201 604923.2402390001 0  241462.182234 605449.881372 0  240906.219606 605674.888222 0  240241.856192 606891.125066 0  239891.734044 607841.012479 0  239048.653431 608724.889805 0  238118.054545 608974.895967 0  238888.111029 607337.406468 0  239738.119992 606212.362729 0  240288.12044 605687.4075229999 0  240380.212307 604729.521696 0  239347.309632 604603.204501 0  238888.112036 604387.408787 0  237913.11173 604687.401386 0  236784.172023 604499.882783 0  236883.408793 603717.08334 0  236154.933927 603595.565605 0  235688.103943 602912.369264 0  235763.108033 601662.366516 0  236363.110805 600412.35884 0  236738.107995 599162.356577 0  236525.607944 598482.2412899999 0  236138.109208 599362.357613 0  235725.063048 600325.4466510001 0  235091.948926 601408.5220979999 0  235188.10921 600312.366344 0  234375.602405 600833.9674270001 0  234663.109308 599912.358011 0  234138.105122 600062.365644 0  233955.307245 599029.561063 0  233338.103791 598387.401556 0  233988.09795 597862.356384 0  235138.101489 596637.3947750001 0  235563.1039 595387.392428 0  236513.103639 594212.356312 0  237163.10684 592987.3929869999 0  238313.103031 591862.3515540001 0  239513.107028 590812.3512640001 0  240638.102135 589787.387271 0  241463.109549 588587.378486 0  242294.489816 587443.735215 0  242913.101099 586512.341804 0  243544.066915 585474.859604 0  243040.448415 585184.975583 0  242438.10214 585337.38015 0  241313.102353 586562.339499 0  240538.107104 587787.382449 0  240114.641085 588588.939407 0  239388.100256 589437.382238 0  238188.104456 590512.346358 0  236938.100507 591362.349798 0  235813.10453 592537.396388 0  234864.502938 593178.7753880001 0  234463.097651 592862.357267 0  235113.0965 591662.3545979999 0  235713.101522 590412.346099 0  235777.688431 589976.7582779999 0  234943.583145 590706.265132 0  234462.482256 591490.2841159999 0  233801.497784 592112.940187 0  233388.099101 591787.394208 0  234013.093099 590437.393065 0  234776.217248 587148.7548100001 0  235163.093726 586562.3486189999 0  235313.098918 585483.229012 0  235250.59732 584662.298153 0  235588.093896 583337.379493 0  236329.432041 582199.858992 0  237188.096234 581462.3349939999 0  237463.088521 580212.335511 0  238350.592558 579057.652616 0  238591.415797 578574.847681 0  238313.094106 577612.328905 0  239229.696732 577695.769664 0  240195.161018 577513.008613 0  240614.996733 577149.8518770001 0  240663.091715 577412.332622 0  240288.092486 578662.334085 0  239942.357258 579508.095811 0  240438.100019 580212.3334220001 0  241338.095553 580387.375355 0  241238.099828 579137.369157 0  241788.097003 577887.370889 0  241983.554649 577241.9220939999 0  242054.178239 576927.8105029999 0  242588.100699 575737.366175 0  243149.324833 574898.583978 0  243695.278626 573919.517981 0  244268.494418 573724.8454239999 0  244995.134063 573930.2767810001 0  245417.314363 573391.601898 0  243450.599125 571859.479773 0  245776.797908 572599.8353060001 0  246779.639852 572973.285167 0  248034.741935 573186.082054 0  249413.10651 573162.3205520001 0  250496.922226 573271.1521899999 0  251613.105126 573237.3551319999 0  252421.824577 572846.032906 0  253256.245022 572580.4733130001 0  253739.471933 571960.9547369999 0  254174.511864 572149.8346569999 0  254484.944333 571684.194807 0  254384.108649 570891.346712 0  254344.002752 570218.26407 0  255025.609604 570829.0294979999 0  255715.005913 570489.264586 0  256218.846343 570774.828355 0  256834.349083 570508.5908 0  257390.092515 570014.308325 0  257624.431042 568493.478911 0  259355.811717 569380.021819 0  260033.372814 569617.066669 0  262679.741751 570320.699974 0  263289.115756 569524.817815 0  263463.114338 570512.301061 0  264638.198419 570687.3443539999 0  265058.220065 571334.378467 0  265447.561421 572077.90485 0  265488.125257 573137.3446020001 0  265131.937715 573963.293593 0  265432.389648 575093.068786 0  265638.122314 576338.029955 0  265750.630817 577371.8281319999 0  265738.570663 578561.9098850001 0  265875.630866 579139.630549 0  266213.129247 579862.311842 0  266563.130472 581112.314509 0  266238.135356 582362.310259 0  265938.12863 583612.320897 0  265738.131342 584762.3210189999 0  266875.638633 585365.358768 0  264018.7239399826 593650.4646671159 0  262236.3944351029 595831.1252656333 0  241846.246678 605206.1436625 0  240200.622106 608424.8903290001 0  240943.4862974102 610939.7757535663 0  236550.6094 599787.3577085 0  238528.1212051503 608102.9081793013 0  244413.4891967989 572609.5960859474 0  236382.0474488751 598808.3067022427 0  235369.601910944 600933.5380148316 0  235413.099011 591037.3503485 0  235446.2251831186 590266.6553871984 0  240475.5921005 578037.3333535 0  240413.173949154 577324.4280286073 0  240574.037899 606283.0066440001 0  263857.9179445 593618.2891454998 0  264153.4303974913 593343.916675058 0  242042.1833925 604946.7714812499 0  241650.3099635 605465.51584375 0  244613.6985165 572229.6575395 0  236631.8579695 598822.2989335 0  235140.029068 600860.444221 0  241767.7287175 604874.0596705 0  242140.15174975 604817.0853906251 0  234781.8558075 600573.1668855001 0  242091.167571125 604881.9284359375 0  234519.3558565 600373.162719 0  254604.8337712102 583989.0014118921 0  250699.5846056537 594617.3297041012 0  250540.4796469513 602258.2940568649 0  248483.7490186612 580334.7345534252 0  258549.2190328319 577893.951823392 0  257067.0067473103 590016.5327808241 0  243285.0921999099 596333.923437875 0  248333.1386145258 589098.0389905117 0  256142.8445072741 595883.3911551933 0  260245.1368072523 583315.2785712298 0  253472.3380211276 578932.2908163272 0  246432.3347504817 599884.5019511909 0  261555.9240922556 588041.186709004 0  247293.1100123104 605823.8307887657 0  246458.2798550911 593168.8646574575 0  252840.0183145193 588226.5564648228 0  249828.2874404451 584740.7888937403 0  255409.5660975206 600458.8956828594 0  260819.9733392385 574219.403683011 0  252584.2262054711 605722.6603825617 0  254049.8830611471 592547.4852571967 0  250015.4356193061 598425.2225922942 0  245872.072249477 577604.9761853142 0  262002.1583249522 579753.4663046852 0  257732.6630933878 586227.970805314 0  250242.5556457866 577017.3316409125 0  244921.6453001869 581816.6358421432 0  256520.3890639471 580904.824006648 0  240779.0970645865 599524.6679555867 0  257100.1829219198 574459.5922545703 0  239912.2630002034 595231.1172704464 0  244703.0875078634 590068.6945953515 0  242549.5490268674 592874.3693043783 0  251586.0465921376 581796.2215047925 0  246643.189997516 596527.447801719 0  251049.7658069622 591057.6752245198 0  253014.5731561695 596998.6601086652 0  238680.2197353724 584542.2309791476 0  259715.365803504 591937.1938619445 0  254097.157218761 575731.4494927844 0  246806.6408589328 586139.0877599345 0  246136.1179750556 602959.471719323 0  253520.7033332401 602835.180253843 0  244125.4295793909 607538.9817227355 0  252546.8895354472 599881.3279113505 0  258289.0983523553 600397.640191779 0  247518.7952199645 583037.3718217331 0  263140.3959879661 582529.2228421422 0  262894.8586894067 585442.3590432997 0  256968.6320599076 593040.7691844478 0  243573.0187527719 600218.2795730785 0  258888.5766127351 595139.7745218446 0  262588.7569809347 576734.8569237856 0  259318.4257992262 580601.2540325444 0  249963.3812725965 607065.7205847671 0  257494.5307999607 583482.5893534871 0  258906.4757205145 572278.8089438241 0  237751.446593475 587300.5805003279 0  255142.4708720699 604956.7580261135 0  258485.4978753244 597756.9250383095 0  255516.7820591553 587791.39641967 0  239758.4692108706 601926.8203218657 0  255873.0092222999 577739.5085867504
[...]
<PointData  Scalars="f_32-0"> 
<DataArray  type="Float64"  Name="f_32-0"  format="ascii">4.4376439819490975e+06  4.5567860015690839e+06  4.6920845839175573e+06  4.7993946879588198e+06  4.8710762636531461e+06  4.9755841302718362e+06  5.0105926082924940e+06  5.0383638586173495e+06  5.0383161757150544e+06  5.0603923072026093e+06  5.0713800640984504e+06  5.0692386814607568e+06  5.0898429960540291e+06  5.2770196013767319e+06  5.4118727881686185e+06  5.5409322770240614e+06  5.7250095455282386e+06  5.9374526494963309e+06  5.9641203565671584e+06  5.9962540877311658e+06  6.1660032374241669e+06  6.3013684286048934e+06  6.4558361195976762e+06  6.5386721444626115e+06  6.5783992764398968e+06  6.6642148387474865e+06  6.6889758447010182e+06  6.7339533884419855e+06  6.8250535053581772e+06  6.8882543885822417e+06  6.9084120072346041e+06  6.9652477057840880e+06  7.1022953124964563e+06  7.2090115893958136e+06  7.2280448551852945e+06  7.3112208885599030e+06  7.4023410932820868e+06  7.4817776966607301e+06  7.5332421220793901e+06  7.5783708613938699e+06  7.6427499462053943e+06  7.7026124297692403e+06  7.7573628942978997e+06  7.8069694630028158e+06  7.8511767636606367e+06  7.8603198925793730e+06  7.8832533695532409e+06  7.9106078876914699e+06  7.9297573733022884e+06  7.9380584314748021e+06  7.9401494792400906e+06  7.9421012762683509e+06  7.9423348849478979e+06  7.9464162918455647e+06  7.9535178238209840e+06  7.9530309061656632e+06  7.9531929852874614e+06  7.9558490917165149e+06  7.9489597028746707e+06  7.9239597145760981e+06  7.8910528805858027e+06  7.8604476711639166e+06  7.8057894018687103e+06  7.7064111482305387e+06  7.6743487235684907e+06  7.7318735389812151e+06  7.7563825721455244e+06  7.7632052265940756e+06  7.7703471756127169e+06  7.7818558526074402e+06  7.7985326189292641e+06  7.8595328750041928e+06  7.8792170719285477e+06  7.8883950132229850e+06  7.8902326404692819e+06  7.8803118710831804e+06  7.8505248022523522e+06  7.8154183654503375e+06  7.7658535290618259e+06  7.7509613531271406e+06  7.7506119793692520e+06  7.7526517556743659e+06  7.7530189449263886e+06  7.7497004574496243e+06  7.7472124884938421e+06  7.7442062413574792e+06  7.7326140213128692e+06  7.7020559861764321e+06  7.6515475506647862e+06  7.6296526739959801e+06  7.6506185849992866e+06  7.6617249223711947e+06  7.6654693247290319e+06  7.6623812956573302e+06  7.6636947288552178e+06  7.6604206993998364e+06  7.6596882704535509e+06  7.6549485537697179e+06  7.6525654798974358e+06  7.6470240904770624e+06  7.5997432805216601e+06  7.5431378316339236e+06  7.4590402836219221e+06  7.3647492800288694e+06  7.2330871994975787e+06  7.0470972298515299e+06  6.8014444768927330e+06  6.5213404503367506e+06  6.2283259998409953e+06  5.9636877333238367e+06  5.6165813377758609e+06  5.5181805096430080e+06  5.5813035394310746e+06  5.8013878763902709e+06  5.9448031883971468e+06  6.0054394154323414e+06  6.0612484312197911e+06  6.1255296658264203e+06  6.1714569386273772e+06  6.2034909088643957e+06  6.2104883993325876e+06  6.2105558743925076e+06  6.1997491688623913e+06  6.1701076887387754e+06  6.1592276536162766e+06  6.1807426954104863e+06  6.1945723040219620e+06  6.1989276363079436e+06  6.1989270431900257e+06  6.1846729226767579e+06  6.0885246625872003e+06  6.0550552212359160e+06  5.9941794549573176e+06  5.9559745157987298e+06  5.9003026208711499e+06  5.8377650131165013e+06  5.7646059317700360e+06  5.7052584361850712e+06  5.6798269536265489e+06  5.6822954563389411e+06  5.6869409149531983e+06  5.6861001031089732e+06  5.6880163373608319e+06  5.6891693997835098e+06  5.6890262988469396e+06  5.6792933291163119e+06  5.6430717373098657e+06  5.5208471096901437e+06  5.2034219502520151e+06  4.8861988787738113e+06  4.6733290174882300e+06  4.5706680251583653e+06  4.5310525663927589e+06  4.3869769215794364e+06  4.2867828131174957e+06  4.2064712533433530e+06  4.1796885687899571e+06  4.0928201872300934e+06  3.9939923958211788e+06  3.9979416640562941e+06  3.9681424957272904e+06  3.8749676564966659e+06  3.6469289971322543e+06  3.3622074924137904e+06  3.1618347832663180e+06  2.9911631839935761e+06  2.9248152058497835e+06  2.9210147869966137e+06  2.9504371174947284e+06  2.9744647726181177e+06  3.0460994983944376e+06  3.0951936519616991e+06  3.1014965460829199e+06  3.1015162092120009e+06  3.1266656160767158e+06  3.1523741019315235e+06  3.2166242430676622e+06  3.2906251588354595e+06  3.3423463269488364e+06  3.3500851757963290e+06  3.3645795529795405e+06  3.4433954674997129e+06  3.4591597221916155e+06  3.4561668463585186e+06  3.4646172348343893e+06  3.4610091420234586e+06  3.4499261390719619e+06  3.4231611165638920e+06  3.3758918355929134e+06  3.3117283390804608e+06  3.2674126763228630e+06  3.2499724840961634e+06  3.2675837854124978e+06  3.3075682928386494e+06  3.3765239805851346e+06  3.4866390803901129e+06  3.6236962291560820e+06  3.8467273939658566e+06  4.1548195413884595e+06  4.3493202184742913e+06  5.0707220727136936e+06  5.9736132759052431e+06  7.8365420072941659e+06  7.9392244894995615e+06  7.9526775447280286e+06  7.6789127311705882e+06  7.8876185199508592e+06  3.9926210198461218e+06  7.6389698882651394e+06  7.6647194689297732e+06  6.1872165444878191e+06  6.1669391605373984e+06  5.6866474540951941e+06  5.6889269861242948e+06  7.8342398601632789e+06  5.0707091646901052e+06  5.0688470868968414e+06  7.8220159779916555e+06  7.8495103253469737e+06  3.9926296290254490e+06  7.6368763536814256e+06  7.6647216702081384e+06  7.7642817404455123e+06  7.8141615230417941e+06  7.6631270948876105e+06  7.8181427587992586e+06  7.6631073445581533e+06  3.6744088758859518e+06  6.3624157902702019e+06  7.2903103978963718e+06  4.0136770582911028e+06  2.1698367419439834e+06  4.5422929887388693e+06  7.2503021886249529e+06  5.7015127475946080e+06  6.0897235926482836e+06  3.4815767015688848e+06  2.8525318896690486e+06  7.3443953503139652e+06  4.4703509866996314e+06  7.6870795909880195e+06  6.6191455635687234e+06  4.5043965251217354e+06  4.6701307648477117e+06  6.8031504326736555e+06  3.0619011283676988e+06  7.4369924288405450e+06  5.5178371056622593e+06  6.9411046505959295e+06  4.1630304024564405e+06  2.8641986311032884e+06  3.7606323804589598e+06  3.2305684744403227e+06  4.8040818005017322e+06  3.0531467161568580e+06  7.5838891068708152e+06  2.7903417369406479e+06  7.3684948656995669e+06  6.3582500309302183e+06  6.9721908487376748e+06  3.8677274078842020e+06  7.0166812446348052e+06  5.6410793328600032e+06  6.4970322353663901e+06  5.8351314106641337e+06  5.1374226992679229e+06  2.5704905550895180e+06  5.3992016327893799e+06  7.5807469481018903e+06  7.1663539577440629e+06  7.8548409430388296e+06  6.9136984026005566e+06  6.6722430810613241e+06  4.6752026396849947e+06  3.4964550337700313e+06  4.0987957563831084e+06  5.3862538186634146e+06  7.5174114841335909e+06  5.8467306602737261e+06  2.9764039637052915e+06  2.8309161405257378e+06  7.6246226228930689e+06  3.4410364316689181e+06  3.1973188447257136e+06  6.0265313988485979e+06  7.2653449848525776e+06  6.3165387504177634e+06  3.9483882048457665e+06  7.7020332849784782e+06  2.4070847246505483e+06  4.9227474679786973e+06  5.3760365511935661e+06  6.2490198077797722e+06  4.6356988675065050e+06  3.4335106907495484e+06  4.5388979947806690e+06  4.7359089695406305e+06  3.4954607583218440e+06  3.6990541628978592e+06  3.9788207038439442e+06  4.3215200256541325e+06  7.7987606411693962e+06  7.4815141004796885e+06  4.1282300934714293e+06  7.7428107746740496e+06  7.2958226226169318e+06  7.2488431555173183e+06  7.5490681163438912e+06  5.6653166852738075e+06  5.1924470921042403e+06  6.4987505746750599e+06  6.9271174793470521e+06  4.9883724048582064e+06  7.4936562212815043e+06  3.9053249221716095e+06  6.1087091331553226e+06  3.3641977590826810e+06  3.7750272403111188e+06  6.6620726319799386e+06  7.4297115830581272e+06  6.2180500287674991e+06  6.9624964853494847e+06  5.9223957757230811e+06  7.1657162963281013e+06  2.5162679563292176e+06  4.2697953654157016e+06  4.2611839861961752e+06  7.5159875068272026e+06  6.6855959691387871e+06  3.2595734242456583e+06  7.5064851023934716e+06  5.8830485808265572e+06  7.6602305432114266e+06  3.2427284380860920e+06  7.8223214763734778e+06  7.8173760621260554e+06  4.4492233971508779e+06  5.0256703154718811e+06  7.8204490660086460e+06  7.8546092471014448e+06  7.6158081668036319e+06  7.6371104020620035e+06  6.1451703590780320e+06  2.9745622317342963e+06  7.6158918962919721e+06  7.2598361901134802e+06  4.5194979932915503e+06  5.0054235587218767e+06  4.8067739175208760e+06  7.8570572533125654e+06  7.8162945810266798e+06  5.5955681340566762e+06  7.7362332574824793e+06  7.7628263391939560e+06  7.7907938429175774e+06  7.8573499867179906e+06  5.3290103043529112e+06  3.9158301458548103e+06  6.1545884092142517e+06  3.1340976361333313e+06  4.9232291972777154e+06  3.2224006701053781e+06  6.0841724216136159e+06  7.9309908271475136e+06  5.9370297290833518e+06  6.1669758775399867e+06  7.6215383552595172e+06  5.4699015096105924e+06  3.3159301929785251e+06  6.1573608085766509e+06  2.8041896986436397e+06  4.2051890506448261e+06  7.6354765683865305e+06  7.5927065640190942e+06  5.6602775077749984e+06  7.9289192054205546e+06  3.2524939298685486e+06  7.6888726387100657e+06  6.2289133936910834e+06  3.4297713664765018e+06  3.0008746133493432e+06  2.7848700371614904e+06  6.8787422106711864e+06  7.6594126747156205e+06  7.6118904269923558e+06  6.6070741668218626e+06  7.8436695704626739e+06  5.8484657464634916e+06  3.9859139162377091e+06  3.9854886903465297e+06  3.2432266027955329e+06  7.8201250650100168e+06  7.8294684720557081e+06  7.8331925749729592e+06  7.2339260730109522e+06  7.5713914418324009e+06  7.8156875876725158e+06  7.7361153155137012e+06  5.9883473611415131e+06  7.9511514764313847e+06  7.9497704084588736e+06  5.4860831254166691e+06  3.1839152184934025e+06  5.6705802203927040e+06  7.6852371687791049e+06  5.3832962426212821e+06  5.8104396100442437e+06  7.9334993488870086e+06  5.6479584641851569e+06  6.9977080799613735e+06  3.8741019853341701e+06  4.5406739128704574e+06  4.4557706706506126e+06  4.6285117949771369e+06  7.6526377551534586e+06  4.9981408298175558e+06  5.0421225209558392e+06  4.9472249053467605e+06  5.0350253939893413e+06  4.8420719979296615e+06  3.4273194095540475e+06  3.3470447561621787e+06  5.0836109905161699e+06  4.4036702080273870e+06  6.2083617549122712e+06  6.2076862894153930e+06  7.9450369604100408e+06  6.6393946828070134e+06  6.3032719826815678e+06  5.5461130207663691e+06  5.4217814912363226e+06  5.4611915402987842e+06  5.5388322052211408e+06  5.4530706626972696e+06  5.4990038738134522e+06  5.6971205007279394e+06  5.5301073800229207e+06  5.6132213277659435e+06  5.8118078874690374e+06  5.7151433950472940e+06  5.0083343255083822e+06  5.3072362842770685e+06  3.4964312395545542e+06  3.6508407269981741e+06  3.4496457197584775e+06  3.2621623146224367e+06  3.3082011604910474e+06  3.0686803238006169e+06  3.2025675287670158e+06  3.1064626300974046e+06  2.8784311001346810e+06  2.8783870759380693e+06  3.2623324825423867e+06  3.2559985244736490e+06  3.2441438406161466e+06  3.2508294740108917e+06  3.2341301875959001e+06  3.2849273635751354e+06  3.2595833386045024e+06  3.2278913094207500e+06  3.3426489112960440e+06  3.2779761884472137e+06  3.3440010711118667e+06  3.3109797615774176e+06  3.4161134782151999e+06  3.6149371938419896e+06  3.4793235545339924e+06  3.5623139487246168e+06  3.4225250850439919e+06  3.5020538902686080e+06  3.7823316776284077e+06  6.6744207480979562e+06  6.4244651374316439e+06  6.3054897606962323e+06  6.5161752835600553e+06  7.1136425244472278e+06  7.3931340898705339e+06  7.2691598109699264e+06  7.3968036905132094e+06  4.3198018329479694e+06  3.7910939025956658e+06  3.8701003017000942e+06  4.1146343647954040e+06  2.4603253634986449e+06  2.5369208231063657e+06  2.3997752284853198e+06  2.4468847491996787e+06  2.2432762793310033e+06  2.2478033886997607e+06  4.8543061241043247e+06  4.9523415830017347e+06  4.2325960207677139e+06  4.5759222289903928e+06  4.4049374078643043e+06  7.3124714187848978e+06  7.1195882409515735e+06  5.6681415330667719e+06  5.5513124632455893e+06  5.9811266381454570e+06  5.3658364476068625e+06  5.9695455077017052e+06  5.8170752239663564e+06  5.8111214896271275e+06  6.2861612273416845e+06  6.0773037929830188e+06  3.0934648296428663e+06  3.4640863461326570e+06  3.7881783671322847e+06  3.1667238829513737e+06  2.9439084012945406e+06  2.9493091325825583e+06  3.3778356147502763e+06  2.5444733156045135e+06  2.6059214186033024e+06  3.1604421337742084e+06  3.1451972304607290e+06  7.1581106891301824e+06  7.4707711941558309e+06  7.2974999745452004e+06  7.4948110001886431e+06  7.6397197151112678e+06  6.8324834697535587e+06  6.4266073911856757e+06  6.7994671026336215e+06  6.6508171412133444e+06  4.1502555073962254e+06  4.5901922003919808e+06  4.7470811719338214e+06  4.1437576372987432e+06  6.9926289253303967e+06  6.8512273103640545e+06  6.7306765057307007e+06  6.6574443694901308e+06  2.8844098494394049e+06  2.9677606113930447e+06  5.5626603280481501e+06  5.4050663888968918e+06  5.1434305235362370e+06  6.9768845850184206e+06  6.7258692084085774e+06  7.1034412161688488e+06  6.8058773150197091e+06  4.3853073998815836e+06  3.9424161808459833e+06  3.9697733350674990e+06  4.2038067540936293e+06  4.0294487138302992e+06  4.1977095165890241e+06  3.1485273103277185e+06  2.8449182042329656e+06  2.7631954885845990e+06  2.5755568780228645e+06  3.0717171222566920e+06  3.0611185762088965e+06  3.5827085865500062e+06  3.7931654038716173e+06  4.0297732688579056e+06  3.6585211901799086e+06  2.7419634122355920e+06  3.3251493927976033e+06  3.4619201476169392e+06  3.5230194601504295e+06  2.8888013278521150e+06  3.2167701382744266e+06  4.7119975426982176e+06  5.1207298520966545e+06  4.7024727691019978e+06  4.5189912117035631e+06  2.9167106928473180e+06  3.2820079708856917e+06  2.6583826458428754e+06  3.2338685780299203e+06  2.6400772123424835e+06  3.0150801722115655e+06  2.4647414563714052e+06  2.5987078437785720e+06  2.8964170326996478e+06  2.9929904483228498e+06  2.7821775862770607e+06  6.2855263643145822e+06  6.1473989885491133e+06  6.5274029290661430e+06  6.5030260187930651e+06  6.9660450239186520e+06  3.6363835998379425e+06  3.6807699560001814e+06  6.8492771017437857e+06  5.9683725311625795e+06  5.1998569061992001e+06  5.2873536625827858e+06  5.7619732353338990e+06  6.7166618673824798e+06  6.4914989690730590e+06  5.7490365002305582e+06  5.7507898433035929e+06  5.2367799993320582e+06  4.7308666361746369e+06  2.4670887238756847e+06  2.6764706988600893e+06  2.6673977156085414e+06  5.2368395412879977e+06  5.6625468254271690e+06  7.4315633343164995e+06  7.5393339030887326e+06  7.0470590877442528e+06  7.3329804939505402e+06  7.0460429415622903e+06  7.0858381778263682e+06  6.7079387859778209e+06  6.5853116743109506e+06  4.4095655159680825e+06  3.3432692984081395e+06  5.0213222205718933e+06  5.5029658732464006e+06  2.7477835972916465e+06  3.0845962331484258e+06  3.0977861479634955e+06  3.2036281239253129e+06  3.6563942028623181e+06  4.3086036366590420e+06  4.0775724943505526e+06  3.8533786916143857e+06  4.6740363027160345e+06  5.3344974337878460e+06  5.4219552859883234e+06  5.4198066274349261e+06  5.5225915892501567e+06  6.2343023535471307e+06  6.0702820702683944e+06  4.4596523265560167e+06  3.7947728443644275e+06  3.6247416618084460e+06  3.8969732194705005e+06  3.7229892510164212e+06  3.4703388665057495e+06  4.1434520654362827e+06  4.5123324834242873e+06  4.0302816090525836e+06  7.3798713639656752e+06  4.4136553099619020e+06  4.0176214160818723e+06  6.0708182269184506e+06  6.4605757144124759e+06  6.8307061390921231e+06  6.6623281017067228e+06  3.2329872208292000e+06  3.1962636888440349e+06  2.8762606320899138e+06  5.3986722828194527e+06  3.1813387038733521e+06  5.5583093012906900e+06  2.9789096039019800e+06  2.7689240674475641e+06  5.5636093669888638e+06  3.6356012410944258e+06  6.5964457887911340e+06  2.2730225890881009e+06  2.2973529378468539e+06  2.2133327910627793e+06  2.1877199069749946e+06  2.2792077112104618e+06  5.8924398116524601e+06  2.8634407433464327e+06  3.1087059073213316e+06  2.9836940871491851e+06  7.3885776628045337e+06  5.1167063579743030e+06  4.3146934309726143e+06  4.3118610010384601e+06  4.4352379303790554e+06  2.8300486124864374e+06  6.8130717734597307e+06  6.8743701033273684e+06  2.9362785183058977e+06  2.9958600456436593e+06  3.6204274986182433e+06  3.6747809127479945e+06  2.9640880523053412e+06  4.5987543612419777e+06  5.6519734735870492e+06  5.8114285298334584e+06  5.4622784145466518e+06  5.8666930724427616e+06  2.6120561149439709e+06  2.5905932394129066e+06  2.6189849940021201e+06  2.6146398387700915e+06  6.8121025294191213e+06  2.6428394023310342e+06  2.8662987991464660e+06  3.0271775168190985e+06  4.0822657674021446e+06  4.0263635958519317e+06  4.1150658240873269e+06  3.9853286768566589e+06  2.5044573420799947e+06  2.3786550675149295e+06  2.4326108385575917e+06  4.1971684339970155e+06  7.2039019257332208e+06  7.2732376298214104e+06  7.3443199246319747e+06  5.6514454060257813e+06  6.6030408601291021e+06  4.1381076655033310e+06  3.8180072828819812e+06  3.6953217706489363e+06  3.9006726088569309e+06  6.3412913911315184e+06  5.8712506456821142e+06  5.9986418551989896e+06  2.3711151549031325e+06  2.3699175775967627e+06  2.5162957998972908e+06  4.2310835129976105e+06  4.3875063225138262e+06  4.3164609310583947e+06  4.1370826708449032e+06  6.5756002226104261e+06  3.2199942438042806e+06  3.1495718619588027e+06  3.1958374936338388e+06  5.5426184938478265e+06  5.4923445396974543e+06  5.5131859956160756e+06  3.0707036664085011e+06  3.2292622820533230e+06  3.3578536003394527e+06  2.7132587478884524e+06  3.2063013665077700e+06  3.1362179903877391e+06  5.6289629372708322e+06  5.7313090932650566e+06  5.6792328471295927e+06  5.5876521729423450e+06  5.6036731212335452e+06  5.6051855149038499e+06  5.5857166243694117e+06  3.4525202116588713e+06  3.2078976728062085e+06  3.6042836032326180e+06  6.7408197471481161e+06  3.9919618585616318e+06  3.9401317133270670e+06  2.2930254114897605e+06  2.3386009291685722e+06  2.6030214598051398e+06  2.6756305437541739e+06  2.4090243993944703e+06  2.3141229354806091e+06  4.3026111842944603e+06  4.1409092411496816e+06  4.2411946630084682e+06  5.8199521658600625e+06  5.9451189759606821e+06  3.1042050377699533e+06  3.2865594932742855e+06  2.6924732702850406e+06  2.8035863632301390e+06  3.2587295780858519e+06  2.6081851202516127e+06  2.6286623364338460e+06  2.4908202954908204e+06  3.4221542754780091e+06  7.3667086908409772e+06  4.2174863108129706e+06  4.4335269582069041e+06  4.2719219084129883e+06  6.7541250067964308e+06  6.7809888359761424e+06  6.6799704158521863e+06  4.0857274020980112e+06  4.3258635474117296e+06  4.1070585204278259e+06  3.3422755632900666e+06  4.4519170370514225e+06  4.4810558999279700e+06  2.5225650773384832e+06  2.6489493355566598e+06  6.4086499005709672e+06  6.3741945722155944e+06  6.4934239672989137e+06  2.6652333131952751e+06  3.1374648952358263e+06  </DataArray> 
</PointData> 
</Piece>
</UnstructuredGrid>
</VTKFile>