<?xml version="1.0"?>
<VTKFile type="UnstructuredGrid"  version="0.1"  >
<UnstructuredGrid>
<Piece  NumberOfPoints="784" NumberOfCells="1320">
<Points>
<DataArray  type="Float64"  NumberOfComponents="3"  format="ascii">266913.131276 586512.314988 0  266738.13716 587762.325998 0  266363.132677 589012.328643 0  266175.641078 590169.601714 0  265666.575631 591040.7699119999 0  264875.64001 591687.766419 0  264900.636161 591845.049083 0  266088.14152 592012.3229499999 0  265561.959259 592661.17101 0  264288.136855 593037.368683 0  263865.194033 593999.8486949999 0  263850.641856 593236.729596 0  263625.634872 592756.525286 0  262689.574249 593299.848918 0  262475.636737 594003.0907310001 0  261934.554452 594340.929792 0  261725.631329 594932.094409 0  261729.256443 595728.498809 0  262138.136044 595012.330523 0  262288.141035 596262.333669 0  261488.994028 597511.480605 0  261234.15567 598316.338928 0  260815.635063 599014.863821 0  261400.643658 599389.7367680001 0  261322.963374 600022.185065 0  261119.455248 600931.061306 0  261607.436504 601293.0629359999 0  260807.446929 602089.899812 0  260025.642878 602988.868697 0  259613.135827 603937.3854499999 0  259050.643123 604100.987861 0  258411.880065 603988.6335979999 0  257764.357469 604449.872569 0  257971.239668 605320.429125 0  258041.396867 605740.635381 0  257188.143339 606987.394312 0  256038.141198 608112.3554550001 0  254788.141633 609087.4026939999 0  253588.140656 609812.362881 0  252338.135706 609737.4048949999 0  251088.138116 609787.404055 0  249963.12851 610287.399466 0  248613.130524 610462.365857 0  247363.132198 610687.407659 0  246113.130532 610837.411551 0  245832.347438 610918.209918 0  245016.946433 610958.5639439999 0  244313.129646 610762.372259 0  244400.622144 611378.093316 0  243939.669208 612460.8930899999 0  242960.649733 611984.892792 0  242170.381438 611919.647351 0  241888.122919 611112.375656 0  241393.380757 610467.6456149999 0  240594.157528 611306.369822 0  240525.621947 610804.648112 0  240363.123632 610512.3745050001 0  239113.123247 610262.374278 0  239813.12126 609037.412459 0  240588.122952 607812.368199 0  241013.119545 606625.9534560001 0  241454.373249 605724.888025 0  242238.120107 604687.3993 0  243088.121248 603462.362766 0  242860.319451 603007.3932640001 0  241563.116617 603812.361344 0  241778.400913 604327.642217 0  242059.837234 604824.879102 0  241475.620201 604923.2402390001 0  241462.182234 605449.881372 0  240906.219606 605674.888222 0  240241.856192 606891.125066 0  239891.734044 607841.012479 0  239048.653431 608724.889805 0  238118.054545 608974.895967 0  238888.111029 607337.406468 0  239738.119992 606212.362729 0  240288.12044 605687.4075229999 0  240380.212307 604729.521696 0  239347.309632 604603.204501 0  238888.112036 604387.408787 0  237913.11173 604687.401386 0  236784.172023 604499.882783 0  236883.408793 603717.08334 0  236154.933927 603595.565605 0  235688.103943 602912.369264 0  235763.108033 601662.366516 0  236363.110805 600412.35884 0  236738.107995 599162.356577 0  236525.607944 598482.2412899999 0  236138.109208 599362.357613 0  235725.063048 600325.4466510001 0  235091.948926 601408.5220979999 0  235188.10921 600312.366344 0  234375.602405 600833.9674270001 0  234663.109308 599912.358011 0  234138.105122 600062.365644 0  233955.307245 599029.561063 0  233338.103791 598387.401556 0  233988.09795 597862.356384 0  235138.101489 596637.3947750001 0  235563.1039 595387.392428 0  236513.103639 594212.356312 0  237163.10684 592987.3929869999 0  238313.103031 591862.3515540001 0  239513.107028 590812.3512640001 0  240638.102135 589787.387271 0  241463.109549 588587.378486 0  242294.489816 587443.735215 0  242913.101099 586512.341804 0  243544.066915 585474.859604 0  243040.448415 585184.975583 0  242438.10214 585337.38015 0  241313.102353 586562.339499 0  240538.107104 587787.382449 0  240114.641085 588588.939407 0  239388.100256 589437.382238 0  238188.104456 590512.346358 0  236938.100507 591362.349798 0  235813.10453 592537.396388 0  234864.502938 593178.7753880001 0  234463.097651 592862.357267 0  235113.0965 591662.3545979999 0  235713.101522 590412.346099 0  235777.688431 589976.7582779999 0  234943.583145 590706.265132 0  234462.482256 591490.2841159999 0  233801.497784 592112.940187 0  233388.099101 591787.394208 0  234013.093099 590437.393065 0  234776.217248 587148.7548100001 0  235163.093726 586562.3486189999 0  235313.098918 585483.229012 0  235250.59732 584662.298153 0  235588.093896 583337.379493 0  236329.432041 582199.858992 0  237188.096234 581462.3349939999 0  237463.088521 580212.335511 0  238350.592558 579057.652616 0  238591.415797 578574.847681 0  238313.094106 577612.328905 0  239229.696732 577695.769664 0  240195.161018 577513.008613 0  240614.996733 577149.8518770001 0  240663.091715 577412.332622 0  240288.092486 578662.334085 0  239942.357258 579508.095811 0  240438.100019 580212.3334220001 0  241338.095553 580387.375355 0  241238.099828 579137.369157 0  241788.097003 577887.370889 0  241983.554649 577241.9220939999 0  242054.178239 576927.8105029999 0  242588.100699 575737.366175 0  243149.324833 574898.583978 0  243695.278626 573919.517981 0  244268.494418 573724.8454239999 0  244995.134063 573930.2767810001 0  245417.314363 573391.601898 0  243450.599125 571859.479773 0  245776.797908 572599.8353060001 0  246779.639852 572973.285167 0  248034.741935 573186.082054 0  249413.10651 573162.3205520001 0  250496.922226 573271.1521899999 0  251613.105126 573237.3551319999 0  252421.824577 572846.032906 0  253256.245022 572580.4733130001 0  253739.471933 571960.9547369999 0  254174.511864 572149.8346569999 0  254484.944333 571684.194807 0  254384.108649 570891.346712 0  254344.002752 570218.26407 0  255025.609604 570829.0294979999 0  255715.005913 570489.264586 0  256218.846343 570774.828355 0  256834.349083 570508.5908 0  257390.092515 570014.308325 0  257624.431042 568493.478911 0  259355.811717 569380.021819 0  260033.372814 569617.066669 0  262679.741751 570320.699974 0  263289.115756 569524.817815 0  263463.114338 570512.301061 0  264638.198419 570687.3443539999 0  265058.220065 571334.378467 0  265447.561421 572077.90485 0  265488.125257 573137.3446020001 0  265131.937715 573963.293593 0  265432.389648 575093.068786 0  265638.122314 576338.029955 0  265750.630817 577371.8281319999 0  265738.570663 578561.9098850001 0  265875.630866 579139.630549 0  266213.129247 579862.311842 0  266563.130472 581112.314509 0  266238.135356 582362.310259 0  265938.12863 583612.320897 0  265738.131342 584762.3210189999 0  266875.638633 585365.358768 0  264018.7239399826 593650.4646671159 0  262236.3944351029 595831.1252656333 0  241846.246678 605206.1436625 0  240200.622106 608424.8903290001 0  240943.4862974102 610939.7757535663 0  236550.6094 599787.3577085 0  238528.1212051503 608102.9081793013 0  244413.4891967989 572609.5960859474 0  236382.0474488751 598808.3067022427 0  235369.601910944 600933.5380148316 0  235413.099011 591037.3503485 0  235446.2251831186 590266.6553871984 0  240475.5921005 578037.3333535 0  240413.173949154 577324.4280286073 0  240574.037899 606283.0066440001 0  263857.9179445 593618.2891454998 0  264153.4303974913 593343.916675058 0  242042.1833925 604946.7714812499 0  241650.3099635 605465.51584375 0  244613.6985165 572229.6575395 0  236631.8579695 598822.2989335 0  235140.029068 600860.444221 0  241767.7287175 604874.0596705 0  242140.15174975 604817.0853906251 0  234781.8558075 600573.1668855001 0  242091.167571125 604881.9284359375 0  234519.3558565 600373.162719 0  254604.8337712102 583989.0014118921 0  250699.5846056537 594617.3297041012 0  250540.4796469513 602258.2940568649 0  248483.7490186612 580334.7345534252 0  258549.2190328319 577893.951823392 0  257067.0067473103 590016.5327808241 0  243285.0921999099 596333.923437875 0  248333.1386145258 589098.0389905117 0  256142.8445072741 595883.3911551933 0  260245.1368072523 583315.2785712298 0  253472.3380211276 578932.2908163272 0  246432.3347504817 599884.5019511909 0  261555.9240922556 588041.186709004 0  247293.1100123104 605823.8307887657 0  246458.2798550911 593168.8646574575 0  252840.0183145193 588226.5564648228 0  249828.2874404451 584740.7888937403 0  255409.5660975206 600458.8956828594 0  260819.9733392385 574219.403683011 0  252584.2262054711 605722.6603825617 0  254049.8830611471 592547.4852571967 0  250015.4356193061 598425.2225922942 0  245872.072249477 577604.9761853142 0  262002.1583249522 579753.4663046852 0  257732.6630933878 586227.970805314 0  250242.5556457866 577017.3316409125 0  244921.6453001869 581816.6358421432 0  256520.3890639471 580904.824006648 0  240779.0970645865 599524.6679555867 0  257100.1829219198 574459.5922545703 0  239912.2630002034 595231.1172704464 0  244703.0875078634 590068.6945953515 0  242549.5490268674 592874.3693043783 0  251586.0465921376 581796.2215047925 0  246643.189997516 596527.447801719 0  251049.7658069622 591057.6752245198 0  253014.5731561695 596998.6601086652 0  238680.2197353724 584542.2309791476 0  259715.365803504 591937.1938619445 0  254097.157218761 575731.4494927844 0  246806.6408589328 586139.0877599345 0  246136.1179750556 602959.471719323 0  253520.7033332401 602835.180253843 0  244125.4295793909 607538.9817227355 0  252546.8895354472 599881.3279113505 0  258289.0983523553 600397.640191779 0  247518.7952199645 583037.3718217331 0  263140.3959879661 582529.2228421422 0  262894.8586894067 585442.3590432997 0  256968.6320599076 593040.7691844478 0  243573.0187527719 600218.2795730785 0  258888.5766127351 595139.7745218446 0  262588.7569809347 576734.8569237856 0  259318.4257992262 580601.2540325444 0  249963.3812725965 607065.7205847671 0  257494.5307999607 583482.5893534871 0  258906.4757205145 572278.8089438241 0  237751.446593475 587300.5805003279 0  255142.4708720699 604956.7580261135 0  258485.4978753244 597756.9250383095 0  255516.7820591553 587791.39641967 0  239758.4692108706 601926.8203218657 0  255873.0092222999 577739.5085867504
[...]
<PointData  Scalars="f_32-0"> 
<DataArray  type="Float64"  Name="f_32-0"  format="ascii">1.1623141089461789e+07  1.1669040996578980e+07  1.1719795066128055e+07  1.1760346736446550e+07  1.1785986065055475e+07  1.1823618683269663e+07  1.1838853742963560e+07  1.1854848162261155e+07  1.1853762911950214e+07  1.1855441678373124e+07  1.1860838246882195e+07  1.1858186496594587e+07  1.1857661309189670e+07  1.1910041829810062e+07  1.1958825059374619e+07  1.2008279714794636e+07  1.2084215225422379e+07  1.2178809350734459e+07  1.2193354772018524e+07  1.2205842252063459e+07  1.2274685757039674e+07  1.2330881976002119e+07  1.2398523146460073e+07  1.2438905489229295e+07  1.2457981707389915e+07  1.2499818129811395e+07  1.2512571529402532e+07  1.2532513014670871e+07  1.2574710942291168e+07  1.2605531318884466e+07  1.2614734266951524e+07  1.2641287087016677e+07  1.2715839629188772e+07  1.2781096177227149e+07  1.2793132808976248e+07  1.2844477915279558e+07  1.2899962307802079e+07  1.2948102038132846e+07  1.2979005808850467e+07  1.3005412353033621e+07  1.3043298505156336e+07  1.3079080482442593e+07  1.3111881725747731e+07  1.3141621359325366e+07  1.3168146762336455e+07  1.3173635812760800e+07  1.3187390929942861e+07  1.3203802410209654e+07  1.3215324645434916e+07  1.3220319779509012e+07  1.3221575034600614e+07  1.3222747029519763e+07  1.3222880983620271e+07  1.3225332997218821e+07  1.3229617184193829e+07  1.3229323517111417e+07  1.3229421886364523e+07  1.3231026522420211e+07  1.3226869371505519e+07  1.3211763357382406e+07  1.3191756582288055e+07  1.3172960530470496e+07  1.3138926042420244e+07  1.3076690864483258e+07  1.3060056907935375e+07  1.3107103197924929e+07  1.3124358920121413e+07  1.3129041587122301e+07  1.3133800097645188e+07  1.3141387085902676e+07  1.3152088673506020e+07  1.3190900500388732e+07  1.3203368773011021e+07  1.3209175766848838e+07  1.3210338849567380e+07  1.3204060579136150e+07  1.3185188455135521e+07  1.3162867558520496e+07  1.3131505396279940e+07  1.3123509392924948e+07  1.3124166203740930e+07  1.3126683208268167e+07  1.3127347890957177e+07  1.3125429767647484e+07  1.3124236106507679e+07  1.3122481104036102e+07  1.3115167415888933e+07  1.3095487830742132e+07  1.3063581403326707e+07  1.3052296063668301e+07  1.3069906828032911e+07  1.3078361198844517e+07  1.3081127943889702e+07  1.3078872154687611e+07  1.3079876985462243e+07  1.3077507374315647e+07  1.3077027019000553e+07  1.3073663420778731e+07  1.3072013505466325e+07  1.3067976698548112e+07  1.3033814442928389e+07  1.2993289953625236e+07  1.2931549682926366e+07  1.2860646651395213e+07  1.2757078054065796e+07  1.2606246450729121e+07  1.2414621625729935e+07  1.2219487467959559e+07  1.2069979316634158e+07  1.1993113185242077e+07  1.2005777735436322e+07  1.2131580208675561e+07  1.2269973258086136e+07  1.2474488991753468e+07  1.2574022366873626e+07  1.2612763112804225e+07  1.2647419423183888e+07  1.2686665457410207e+07  1.2714529754017711e+07  1.2734071969625965e+07  1.2738381167927561e+07  1.2738422927921595e+07  1.2731778572106142e+07  1.2713855279028339e+07  1.2707492391729081e+07  1.2720853526285250e+07  1.2729350955593329e+07  1.2732034595139410e+07  1.2732035247577898e+07  1.2723273159669191e+07  1.2665962348289395e+07  1.2646312695319107e+07  1.2610907975465253e+07  1.2588806629680242e+07  1.2556413906407546e+07  1.2519660129597478e+07  1.2476545733623918e+07  1.2442762037620297e+07  1.2429526535580741e+07  1.2432229587902902e+07  1.2435893551913306e+07  1.2435368032163978e+07  1.2436837789839776e+07  1.2437662948985437e+07  1.2437560924580721e+07  1.2430718381455256e+07  1.2405899323113590e+07  1.2326525710115010e+07  1.2133513320308099e+07  1.1960263507226460e+07  1.1846669955499437e+07  1.1792575190126659e+07  1.1771808053374618e+07  1.1695672084625039e+07  1.1641801548535332e+07  1.1597970479706448e+07  1.1581907117016379e+07  1.1528964383477284e+07  1.1476932737267623e+07  1.1501491931105440e+07  1.1466049454787703e+07  1.1398224720559619e+07  1.1256331401449254e+07  1.1107262556874782e+07  1.1029397343020769e+07  1.1003533603538679e+07  1.1030761316392716e+07  1.1086160657087106e+07  1.1132754319278093e+07  1.1159817373824371e+07  1.1224607310009297e+07  1.1263498211848032e+07  1.1268210765721802e+07  1.1268658077343700e+07  1.1287688225095863e+07  1.1305875397134732e+07  1.1348985613276664e+07  1.1396776572868505e+07  1.1430418962003075e+07  1.1430736061005421e+07  1.1435496383821018e+07  1.1458150758811865e+07  1.1464764604993749e+07  1.1460023963926185e+07  1.1456544052991306e+07  1.1450435159139629e+07  1.1438065314598555e+07  1.1412983212863758e+07  1.1367856830187585e+07  1.1291879751475541e+07  1.1217697627271296e+07  1.1167365454278497e+07  1.1142023765305400e+07  1.1153854158662975e+07  1.1186565471411224e+07  1.1242655531742200e+07  1.1302789005857883e+07  1.1388769545465624e+07  1.1506163594694775e+07  1.1587828179595280e+07  1.1860193748195542e+07  1.2196368878472354e+07  1.3158140341327326e+07  1.3220993156032296e+07  1.3229110176199587e+07  1.3080663587715210e+07  1.3208684399427637e+07  1.1493422427909467e+07  1.3060642766278133e+07  1.3080577479200589e+07  1.2724145281180147e+07  1.2712357459285710e+07  1.2435874900765847e+07  1.2437490106950507e+07  1.3174844670151630e+07  1.1860195820356512e+07  1.1858599389207602e+07  1.3149082631877758e+07  1.3166194527323805e+07  1.1493424579382028e+07  1.3054987552225437e+07  1.3080579026359094e+07  1.3129764170620602e+07  1.3144170840954842e+07  1.3079457676760858e+07  1.3146661651507471e+07  1.3079444023767073e+07  1.0881597556877505e+07  1.2017687025551092e+07  1.2761127830599634e+07  1.1352540698276913e+07  1.0660644538580967e+07  1.1252390380862005e+07  1.2731904640959989e+07  1.1588937405857934e+07  1.2108183970983619e+07  1.1060852632515162e+07  1.0714181977269733e+07  1.2789950210838092e+07  1.1504819027460517e+07  1.3061760232040979e+07  1.2126480211018525e+07  1.1063347274572946e+07  1.1452950487104440e+07  1.2399412669646256e+07  1.1243463640514435e+07  1.2906168473786516e+07  1.1706612592281180e+07  1.2388153515373034e+07  1.1512242575647170e+07  1.0968290658966577e+07  1.0867814315104200e+07  1.0970358269961748e+07  1.1854141033198709e+07  1.0714533306541560e+07  1.3005975936070818e+07  1.1081306137516079e+07  1.2852184373091811e+07  1.1946301825774744e+07  1.2493252858842736e+07  1.1162888347333372e+07  1.2499779427915893e+07  1.1546081313398713e+07  1.2160623154717989e+07  1.2512219654998779e+07  1.1764750092292460e+07  1.0830594197475823e+07  1.1710553191241728e+07  1.2983549510511339e+07  1.2690121284964729e+07  1.3169437167940848e+07  1.2424431470422206e+07  1.2457782886334548e+07  1.1645984144215789e+07  1.1224326918980654e+07  1.1427273648136014e+07  1.1804370739303321e+07  1.2944214937028889e+07  1.2094291906965978e+07  1.1106513894903416e+07  1.0757225308298536e+07  1.3026954462079564e+07  1.0851827978077887e+07  1.1337141933841372e+07  1.2627581193187524e+07  1.2802428756464660e+07  1.2291014302749094e+07  1.0782195375867128e+07  1.3090477486886481e+07  1.0627753678828651e+07  1.1740257886344086e+07  1.2195316196763625e+07  1.1886564967102284e+07  1.1809464494019037e+07  1.0880172313857341e+07  1.1633653800841535e+07  1.1229141072457442e+07  1.1045983248755043e+07  1.1245466719740894e+07  1.1232232596873550e+07  1.1230283870100901e+07  1.3135451306707567e+07  1.2922955753544785e+07  1.1163775391678318e+07  1.3097679973298049e+07  1.2758886783393266e+07  1.2701256805771193e+07  1.2988990957679447e+07  1.2411144248049146e+07  1.1864089848877715e+07  1.2210274734376298e+07  1.2579414071780594e+07  1.1383194456061764e+07  1.2920374165562510e+07  1.0857561739873856e+07  1.1983353788730923e+07  1.1403787888160231e+07  1.1225605624890130e+07  1.2193919127964592e+07  1.2890755559309984e+07  1.1798165060003607e+07  1.2456741346912462e+07  1.1831841636574749e+07  1.2693342330968058e+07  1.0923122458395349e+07  1.1577277021129068e+07  1.1408265072975550e+07  1.2971105967598954e+07  1.2177530712484779e+07  1.1141655783141347e+07  1.2960102723381605e+07  1.1782178411254620e+07  1.3065414196339907e+07  1.1297541924853142e+07  1.3149086051562766e+07  1.3146101007423686e+07  1.1714019512041392e+07  1.1835893890589541e+07  1.3148082787534533e+07  1.3169937608624510e+07  1.3038085231396606e+07  1.3060381157635126e+07  1.2699443290416002e+07  1.1189311352817029e+07  1.3012441627829539e+07  1.2810608223325742e+07  1.1762228417515514e+07  1.1833085109774031e+07  1.1741124574048327e+07  1.3170833970772417e+07  1.3145499620845215e+07  1.2009041237105472e+07  1.3113398586827308e+07  1.3111933153368630e+07  1.3129432137045691e+07  1.3171784267480487e+07  1.2016342994320465e+07  1.1406812971111147e+07  1.2704379714936811e+07  1.1297614386828195e+07  1.1793022998918824e+07  1.1120029509407030e+07  1.2662970128059579e+07  1.3215999897862025e+07  1.2576573368257962e+07  1.2712514971691972e+07  1.3044086401625607e+07  1.2205673976917407e+07  1.1408332142432397e+07  1.2706647499503892e+07  1.0944503516610809e+07  1.1592668880123228e+07  1.3058531336987756e+07  1.3027555247502625e+07  1.2413862487606863e+07  1.3214773314797038e+07  1.1033207338306507e+07  1.3086252945298953e+07  1.2288877479219250e+07  1.1430063889988100e+07  1.1196557250936821e+07  1.1036634253381152e+07  1.2596529169472706e+07  1.3045228791309575e+07  1.3015926727340857e+07  1.2460905262529040e+07  1.3162555799135618e+07  1.2128340826979224e+07  1.1483105774934979e+07  1.1483263357765857e+07  1.1366469323079349e+07  1.3147899335778836e+07  1.3153734101287631e+07  1.3156047871880824e+07  1.2796098846254200e+07  1.3008781281834990e+07  1.3146534795782469e+07  1.3097885333603982e+07  1.2602554083952213e+07  1.3228189300384495e+07  1.3227356746863622e+07  1.2298280761652166e+07  1.1163215571893727e+07  1.2424033140737798e+07  1.3059628113116911e+07  1.1941642892240679e+07  1.2501742407201624e+07  1.3217570446397634e+07  1.2384171603976939e+07  1.2646781130055886e+07  1.1384612616915883e+07  1.1776029903302874e+07  1.1732140024973657e+07  1.1820869694337767e+07  1.3071680636314584e+07  1.1832036699521406e+07  1.1852395971323106e+07  1.1809253314376947e+07  1.1847739636020174e+07  1.1770942579118650e+07  1.1444558926837537e+07  1.1414521255457746e+07  1.1833236517019797e+07  1.1700959404366300e+07  1.2737069211987346e+07  1.2736652462435994e+07  1.3224497510371579e+07  1.2248241709611515e+07  1.2038511889573006e+07  1.1864355357511360e+07  1.1953805186903644e+07  1.2034346767586282e+07  1.2203243087126074e+07  1.2068676422245337e+07  1.2182783890224300e+07  1.2390913081421338e+07  1.2227537350786204e+07  1.2335415333117317e+07  1.2489129532364823e+07  1.2415562327089656e+07  1.2004355586987626e+07  1.2182149038553216e+07  1.1173319266940547e+07  1.1247543039326662e+07  1.1143269391081426e+07  1.1064519945212094e+07  1.1076489592440028e+07  1.1007272101231076e+07  1.1032891049430795e+07  1.1001909437177528e+07  1.1023965298789941e+07  1.1076850363297297e+07  1.1234305191107655e+07  1.1190214420754254e+07  1.1197273255305225e+07  1.1148538404987948e+07  1.1170170382341001e+07  1.1145571077689216e+07  1.1135458242722083e+07  1.1145382811738271e+07  1.1169686637234038e+07  1.1141341129844392e+07  1.1173099206132485e+07  1.1155281244008079e+07  1.1209070305660930e+07  1.1294548452353017e+07  1.1239693804807650e+07  1.0752072459438285e+07  1.0832457506391866e+07  1.0814863211374968e+07  1.0865141048505334e+07  1.2174754780416470e+07  1.2084132507739522e+07  1.1958505123905541e+07  1.2091464513842782e+07  1.2604439387829343e+07  1.2851279456358479e+07  1.2730635844882766e+07  1.2845905705539556e+07  1.1518244163286636e+07  1.1201956017144430e+07  1.1271208256214360e+07  1.1455234567174526e+07  1.0763232778802780e+07  1.0616388692389637e+07  1.0850620854440736e+07  1.0657160637305558e+07  1.0636953206790546e+07  1.0766026406878836e+07  1.1541359397659754e+07  1.1551733664631028e+07  1.0975011556719182e+07  1.1205281013762897e+07  1.1201571628460480e+07  1.2795948260066448e+07  1.2618215279479308e+07  1.1538937076786652e+07  1.1618730328419033e+07  1.1687590058095401e+07  1.1495093563932598e+07  1.1678332320389768e+07  1.1670532111013800e+07  1.1936181398252083e+07  1.2125086896826318e+07  1.2040710199180592e+07  1.0984373957153702e+07  1.1150073624696843e+07  1.1253773259486014e+07  1.0909041205170490e+07  1.0823989744127005e+07  1.0675022880834661e+07  1.0936321089919034e+07  1.0682425028905775e+07  1.0621645682047060e+07  1.0791314662655815e+07  1.0871713711064227e+07  1.2605160770639263e+07  1.2897266444157114e+07  1.2743657293719904e+07  1.2918625853143023e+07  1.3027231232563710e+07  1.2337402597970495e+07  1.1950216262803033e+07  1.2292424055705702e+07  1.2137368284712011e+07  1.0879055364415456e+07  1.1094898499250399e+07  1.1219204481653739e+07  1.0925644681620456e+07  1.2542302995548565e+07  1.2387114047372159e+07  1.2427165206597116e+07  1.2286948775635378e+07  1.1154062936775360e+07  1.1159215345262254e+07  1.1609167616476974e+07  1.1741311855098914e+07  1.1486373022148168e+07  1.2427242772986827e+07  1.2241755531743525e+07  1.2554649542059734e+07  1.2269436328353472e+07  1.1657794494105604e+07  1.1375455968518926e+07  1.1366286646325879e+07  1.1530367335158637e+07  1.1450793508053003e+07  1.1565822840016762e+07  1.1081559676644184e+07  1.0997701814053843e+07  1.0846315957991058e+07  1.0878843249134937e+07  1.1064009281483781e+07  1.1062126262291884e+07  1.0853964939810334e+07  1.0764216105865104e+07  1.1023277241525710e+07  1.0712141710334413e+07  1.0810884316724539e+07  1.0985384675864000e+07  1.1095724541680420e+07  1.1093934966461042e+07  1.0881786534388769e+07  1.0991730510753941e+07  1.1747906285137527e+07  1.2027945083457181e+07  1.1835135440453915e+07  1.1723528350180496e+07  1.0709106485824157e+07  1.0801841568948021e+07  1.0607366246500110e+07  1.0772682261479350e+07  1.0947965445974065e+07  1.1227895743924327e+07  1.0830818123904778e+07  1.0987735664203085e+07  1.1144352224566283e+07  1.1210062001516448e+07  1.1060439392570576e+07  1.1845433463590408e+07  1.1865838327023039e+07  1.2047141593072666e+07  1.2102205856106795e+07  1.2468011250225002e+07  1.1015172223648993e+07  1.1111098703970008e+07  1.2345906672183668e+07  1.1712024085981924e+07  1.1399535902859455e+07  1.1393839922278516e+07  1.1659365506974079e+07  1.2272157253993694e+07  1.2183590414360087e+07  1.2460507677173588e+07  1.2456433483200699e+07  1.1772481881055066e+07  1.1507553863999207e+07  1.0717348024521517e+07  1.0891614942056507e+07  1.0936135768851845e+07  1.1562540553930700e+07  1.1758493283551082e+07  1.2864711009548746e+07  1.2952671903587447e+07  1.2561525180510337e+07  1.2815868297104184e+07  1.2620926932492431e+07  1.2560727295708330e+07  1.2277759108448332e+07  1.2329131118422953e+07  1.1620822672696846e+07  1.1177204750831740e+07  1.1525427498731088e+07  1.1921061843809659e+07  1.1019269052696032e+07  1.1094461032475138e+07  1.1143123301426940e+07  1.0831509082251228e+07  1.1003195023371525e+07  1.0970989099831758e+07  1.0933952620604938e+07  1.0762242764677253e+07  1.1542547921953838e+07  1.2115183654718719e+07  1.2202227565478358e+07  1.2245882478178198e+07  1.2295394945043869e+07  1.1837731835287053e+07  1.1814183383598570e+07  1.1700603633998707e+07  1.1040526888850857e+07  1.1123621966199851e+07  1.1238134384077545e+07  1.1224792498279233e+07  1.1127975248560732e+07  1.1220377941785282e+07  1.1265675483576655e+07  1.1018997014153894e+07  1.2824404703745004e+07  1.1119410549986403e+07  1.1389174811555259e+07  1.1754027727390405e+07  1.1963322708125131e+07  1.2321511558929384e+07  1.2203493073173437e+07  1.1126211899630373e+07  1.1227014343586389e+07  1.1115709554243602e+07  1.2108895013983935e+07  1.1120995710717166e+07  1.2305773102789272e+07  1.0947088630591061e+07  1.0982820689403526e+07  1.2338333609281026e+07  1.0776911378022881e+07  1.2133372198741881e+07  1.0686330158788670e+07  1.0616739145380110e+07  1.0734424728182577e+07  1.0646078158334088e+07  1.0794757008981206e+07  1.1660624074618891e+07  1.0763031116820602e+07  1.0815785977524908e+07  1.0787431903360156e+07  1.2826929652226647e+07  1.1317214024795471e+07  1.0966037938471606e+07  1.0987137569307543e+07  1.1072088280083237e+07  1.1120356001738118e+07  1.2271399781096747e+07  1.2319529207547748e+07  1.0962802429163961e+07  1.1019054917539068e+07  1.0775824088701295e+07  1.0756205347821811e+07  1.0873372958820563e+07  1.1738615229670605e+07  1.1529546100980343e+07  1.1627400296540730e+07  1.1449804167826369e+07  1.1679553403292350e+07  1.0799008783583080e+07  1.0883993763617609e+07  1.0861519024631824e+07  1.0882962639249628e+07  1.2344152530587094e+07  1.0698180786443420e+07  1.0725167739427684e+07  1.0792071913537128e+07  1.0861901750506677e+07  1.0815192150955368e+07  1.0862783791601250e+07  1.0828894398874974e+07  1.0613849648897910e+07  1.0711584252758348e+07  1.0667655588490799e+07  1.1076961302316209e+07  1.2653061765433131e+07  1.2721585458275078e+07  1.2789158181460485e+07  1.2396361143911073e+07  1.2233506482157525e+07  1.0980425420697886e+07  1.1243223072303481e+07  1.1169061241522189e+07  1.1304016230641887e+07  1.1873856138433190e+07  1.1741208065312916e+07  1.1781434783554014e+07  1.0800955363571839e+07  1.0841058612425491e+07  1.0940643681061847e+07  1.1550134767155729e+07  1.1651477069251796e+07  1.1596806989624945e+07  1.1481374385365121e+07  1.2066512119491555e+07  1.1125479677115977e+07  1.1100536783518609e+07  1.1114809201140307e+07  1.2272034904925002e+07  1.2254657255225427e+07  1.2258640900097227e+07  1.0952815084285207e+07  1.1010743278577186e+07  1.1076571200108413e+07  1.0996726498131277e+07  1.1152709840523733e+07  1.1127960865242096e+07  1.2361169540894890e+07  1.2436739237233056e+07  1.2397415177230576e+07  1.2341459941859923e+07  1.2347418338016223e+07  1.2360448444628997e+07  1.2319867588134838e+07  1.1134081162170528e+07  1.1134008797130650e+07  1.0727843981961256e+07  1.2217052892447891e+07  1.1360474626917098e+07  1.1327039342244113e+07  1.0736071388941158e+07  1.0604401572730202e+07  1.0738637036757778e+07  1.0668397208146986e+07  1.0597377485663678e+07  1.0719431820918646e+07  1.1072675738784814e+07  1.0939173797007782e+07  1.1062209238528689e+07  1.1610029529692797e+07  1.1706509990013286e+07  1.1034104604307132e+07  1.1111558224371018e+07  1.0728257805669270e+07  1.0796425284066277e+07  1.0902393357693477e+07  1.0742080400886847e+07  1.0603104426795172e+07  1.0645841124892754e+07  1.0991495627703922e+07  1.2807743421415247e+07  1.0908226059328003e+07  1.1024544163988741e+07  1.1018847631994206e+07  1.2324820012475433e+07  1.2328121037042573e+07  1.2273782865621768e+07  1.1445659293355983e+07  1.1615035620093876e+07  1.1458737321738742e+07  1.1056493782917108e+07  1.1670323453389948e+07  1.1710630771853285e+07  1.0826645899567429e+07  1.0941319239070334e+07  1.1939666704041937e+07  1.1899567128846271e+07  1.1998922471575228e+07  1.0911605030531699e+07  1.1109171292856008e+07  </DataArray> 
</PointData> 
</Piece>
</UnstructuredGrid>
</VTKFile>