<?xml version="1.0"?>
<VTKFile type="UnstructuredGrid"  version="0.1"  >
<UnstructuredGrid>
<Piece  NumberOfPoints="784" NumberOfCells="1320">
<Points>
<DataArray  type="Float64"  NumberOfComponents="3"  format="ascii">266913.131276 586512.314988 0  266738.13716 587762.325998 0  266363.132677 589012.328643 0  266175.641078 590169.601714 0  265666.575631 591040.7699119999 0  264875.64001 591687.766419 0  264900.636161 591845.049083 0  266088.14152 592012.3229499999 0  265561.959259 592661.17101 0  264288.136855 593037.368683 0  263865.194033 593999.8486949999 0  263850.641856 593236.729596 0  263625.634872 592756.525286 0  262689.574249 593299.848918 0  262475.636737 594003.0907310001 0  261934.554452 594340.929792 0  261725.631329 594932.094409 0  261729.256443 595728.498809 0  262138.136044 595012.330523 0  262288.141035 596262.333669 0  261488.994028 597511.480605 0  261234.15567 598316.338928 0  260815.635063 599014.863821 0  261400.643658 599389.7367680001 0  261322.963374 600022.185065 0  261119.455248 600931.061306 0  261607.436504 601293.0629359999 0  260807.446929 602089.899812 0  260025.642878 602988.868697 0  259613.135827 603937.3854499999 0  259050.643123 604100.987861 0  258411.880065 603988.6335979999 0  257764.357469 604449.872569 0  257971.239668 605320.429125 0  258041.396867 605740.635381 0  257188.143339 606987.394312 0  256038.141198 608112.3554550001 0  254788.141633 609087.4026939999 0  253588.140656 609812.362881 0  252338.135706 609737.4048949999 0  251088.138116 609787.404055 0  249963.12851 610287.399466 0  248613.130524 610462.365857 0  247363.132198 610687.407659 0  246113.130532 610837.411551 0  245832.347438 610918.209918 0  245016.946433 610958.5639439999 0  244313.129646 610762.372259 0  244400.622144 611378.093316 0  243939.669208 612460.8930899999 0  242960.649733 611984.892792 0  242170.381438 611919.647351 0  241888.122919 611112.375656 0  241393.380757 610467.6456149999 0  240594.157528 611306.369822 0  240525.621947 610804.648112 0  240363.123632 610512.3745050001 0  239113.123247 610262.374278 0  239813.12126 609037.412459 0  240588.122952 607812.368199 0  241013.119545 606625.9534560001 0  241454.373249 605724.888025 0  242238.120107 604687.3993 0  243088.121248 603462.362766 0  242860.319451 603007.3932640001 0  241563.116617 603812.361344 0  241778.400913 604327.642217 0  242059.837234 604824.879102 0  241475.620201 604923.2402390001 0  241462.182234 605449.881372 0  240906.219606 605674.888222 0  240241.856192 606891.125066 0  239891.734044 607841.012479 0  239048.653431 608724.889805 0  238118.054545 608974.895967 0  238888.111029 607337.406468 0  239738.119992 606212.362729 0  240288.12044 605687.4075229999 0  240380.212307 604729.521696 0  239347.309632 604603.204501 0  238888.112036 604387.408787 0  237913.11173 604687.401386 0  236784.172023 604499.882783 0  236883.408793 603717.08334 0  236154.933927 603595.565605 0  235688.103943 602912.369264 0  235763.108033 601662.366516 0  236363.110805 600412.35884 0  236738.107995 599162.356577 0  236525.607944 598482.2412899999 0  236138.109208 599362.357613 0  235725.063048 600325.4466510001 0  235091.948926 601408.5220979999 0  235188.10921 600312.366344 0  234375.602405 600833.9674270001 0  234663.109308 599912.358011 0  234138.105122 600062.365644 0  233955.307245 599029.561063 0  233338.103791 598387.401556 0  233988.09795 597862.356384 0  235138.101489 596637.3947750001 0  235563.1039 595387.392428 0  236513.103639 594212.356312 0  237163.10684 592987.3929869999 0  238313.103031 591862.3515540001 0  239513.107028 590812.3512640001 0  240638.102135 589787.387271 0  241463.109549 588587.378486 0  242294.489816 587443.735215 0  242913.101099 586512.341804 0  243544.066915 585474.859604 0  243040.448415 585184.975583 0  242438.10214 585337.38015 0  241313.102353 586562.339499 0  240538.107104 587787.382449 0  240114.641085 588588.939407 0  239388.100256 589437.382238 0  238188.104456 590512.346358 0  236938.100507 591362.349798 0  235813.10453 592537.396388 0  234864.502938 593178.7753880001 0  234463.097651 592862.357267 0  235113.0965 591662.3545979999 0  235713.101522 590412.346099 0  235777.688431 589976.7582779999 0  234943.583145 590706.265132 0  234462.482256 591490.2841159999 0  233801.497784 592112.940187 0  233388.099101 591787.394208 0  234013.093099 590437.393065 0  234776.217248 587148.7548100001 0  235163.093726 586562.3486189999 0  235313.098918 585483.229012 0  235250.59732 584662.298153 0  235588.093896 583337.379493 0  236329.432041 582199.858992 0  237188.096234 581462.3349939999 0  237463.088521 580212.335511 0  238350.592558 579057.652616 0  238591.415797 578574.847681 0  238313.094106 577612.328905 0  239229.696732 577695.769664 0  240195.161018 577513.008613 0  240614.996733 577149.8518770001 0  240663.091715 577412.332622 0  240288.092486 578662.334085 0  239942.357258 579508.095811 0  240438.100019 580212.3334220001 0  241338.095553 580387.375355 0  241238.099828 579137.369157 0  241788.097003 577887.370889 0  241983.554649 577241.9220939999 0  242054.178239 576927.8105029999 0  242588.100699 575737.366175 0  243149.324833 574898.583978 0  243695.278626 573919.517981 0  244268.494418 573724.8454239999 0  244995.134063 573930.2767810001 0  245417.314363 573391.601898 0  243450.599125 571859.479773 0  245776.797908 572599.8353060001 0  246779.639852 572973.285167 0  248034.741935 573186.082054 0  249413.10651 573162.3205520001 0  250496.922226 573271.1521899999 0  251613.105126 573237.3551319999 0  252421.824577 572846.032906 0  253256.245022 572580.4733130001 0  253739.471933 571960.9547369999 0  254174.511864 572149.8346569999 0  254484.944333 571684.194807 0  254384.108649 570891.346712 0  254344.002752 570218.26407 0  255025.609604 570829.0294979999 0  255715.005913 570489.264586 0  256218.846343 570774.828355 0  256834.349083 570508.5908 0  257390.092515 570014.308325 0  257624.431042 568493.478911 0  259355.811717 569380.021819 0  260033.372814 569617.066669 0  262679.741751 570320.699974 0  263289.115756 569524.817815 0  263463.114338 570512.301061 0  264638.198419 570687.3443539999 0  265058.220065 571334.378467 0  265447.561421 572077.90485 0  265488.125257 573137.3446020001 0  265131.937715 573963.293593 0  265432.389648 575093.068786 0  265638.122314 576338.029955 0  265750.630817 577371.8281319999 0  265738.570663 578561.9098850001 0  265875.630866 579139.630549 0  266213.129247 579862.311842 0  266563.130472 581112.314509 0  266238.135356 582362.310259 0  265938.12863 583612.320897 0  265738.131342 584762.3210189999 0  266875.638633 585365.358768 0  264018.7239399826 593650.4646671159 0  262236.3944351029 595831.1252656333 0  241846.246678 605206.1436625 0  240200.622106 608424.8903290001 0  240943.4862974102 610939.7757535663 0  236550.6094 599787.3577085 0  238528.1212051503 608102.9081793013 0  244413.4891967989 572609.5960859474 0  236382.0474488751 598808.3067022427 0  235369.601910944 600933.5380148316 0  235413.099011 591037.3503485 0  235446.2251831186 590266.6553871984 0  240475.5921005 578037.3333535 0  240413.173949154 577324.4280286073 0  240574.037899 606283.0066440001 0  263857.9179445 593618.2891454998 0  264153.4303974913 593343.916675058 0  242042.1833925 604946.7714812499 0  241650.3099635 605465.51584375 0  244613.6985165 572229.6575395 0  236631.8579695 598822.2989335 0  235140.029068 600860.444221 0  241767.7287175 604874.0596705 0  242140.15174975 604817.0853906251 0  234781.8558075 600573.1668855001 0  242091.167571125 604881.9284359375 0  234519.3558565 600373.162719 0  254604.8337712102 583989.0014118921 0  250699.5846056537 594617.3297041012 0  250540.4796469513 602258.2940568649 0  248483.7490186612 580334.7345534252 0  258549.2190328319 577893.951823392 0  257067.0067473103 590016.5327808241 0  243285.0921999099 596333.923437875 0  248333.1386145258 589098.0389905117 0  256142.8445072741 595883.3911551933 0  260245.1368072523 583315.2785712298 0  253472.3380211276 578932.2908163272 0  246432.3347504817 599884.5019511909 0  261555.9240922556 588041.186709004 0  247293.1100123104 605823.8307887657 0  246458.2798550911 593168.8646574575 0  252840.0183145193 588226.5564648228 0  249828.2874404451 584740.7888937403 0  255409.5660975206 600458.8956828594 0  260819.9733392385 574219.403683011 0  252584.2262054711 605722.6603825617 0  254049.8830611471 592547.4852571967 0  250015.4356193061 598425.2225922942 0  245872.072249477 577604.9761853142 0  262002.1583249522 579753.4663046852 0  257732.6630933878 586227.970805314 0  250242.5556457866 577017.3316409125 0  244921.6453001869 581816.6358421432 0  256520.3890639471 580904.824006648 0  240779.0970645865 599524.6679555867 0  257100.1829219198 574459.5922545703 0  239912.2630002034 595231.1172704464 0  244703.0875078634 590068.6945953515 0  242549.5490268674 592874.3693043783 0  251586.0465921376 581796.2215047925 0  246643.189997516 596527.447801719 0  251049.7658069622 591057.6752245198 0  253014.5731561695 596998.6601086652 0  238680.2197353724 584542.2309791476 0  259715.365803504 591937.1938619445 0  254097.157218761 575731.4494927844 0  246806.6408589328 586139.0877599345 0  246136.1179750556 602959.471719323 0  253520.7033332401 602835.180253843 0  244125.4295793909 607538.9817227355 0  252546.8895354472 599881.3279113505 0  258289.0983523553 600397.640191779 0  247518.7952199645 583037.3718217331 0  263140.3959879661 582529.2228421422 0  262894.8586894067 585442.3590432997 0  256968.6320599076 593040.7691844478 0  243573.0187527719 600218.2795730785 0  258888.5766127351 595139.7745218446 0  262588.7569809347 576734.8569237856 0  259318.4257992262 580601.2540325444 0  249963.3812725965 607065.7205847671 0  257494.5307999607 583482.5893534871 0  258906.4757205145 572278.8089438241 0  237751.446593475 587300.5805003279 0  255142.4708720699 604956.7580261135 0  258485.4978753244 597756.9250383095 0  255516.7820591553 587791.39641967 0  239758.4692108706 601926.8203218657 0  255873.0092222999 577739.5085867504
[...]
<PointData  Scalars="f_24704-0"> 
<DataArray  type="Float64"  Name="f_24704-0"  format="ascii">1.9539455199571930e+07  1.9618788914480306e+07  1.9707330459184825e+07  1.9776505753344201e+07  1.9820969568157073e+07  1.9884399381613422e+07  1.9906871174380686e+07  1.9926971759158075e+07  1.9926325457024865e+07  1.9935458453287873e+07  1.9942993460830148e+07  1.9940368118144006e+07  1.9946665957510695e+07  2.0039562881060947e+07  2.0111928969711550e+07  2.0182116560950544e+07  2.0286209984360360e+07  2.0412440594194327e+07  2.0430729550563455e+07  2.0448248844625868e+07  2.0543110364070613e+07  2.0619855508834872e+07  2.0710860253699247e+07  2.0763752340723325e+07  2.0788801025792662e+07  2.0843358878309291e+07  2.0859773674944717e+07  2.0886083636815388e+07  2.0940742510715265e+07  2.0979940081251994e+07  2.0991641117521979e+07  2.1025092475995105e+07  2.1117295482445329e+07  2.1197863312750321e+07  2.1212771096399821e+07  2.1276128352699969e+07  2.1344742135942593e+07  2.1404575699003279e+07  2.1442803809831701e+07  2.1474808706926119e+07  2.1522160062354214e+07  2.1568760851800002e+07  2.1613130401620172e+07  2.1655001585409090e+07  2.1693872642294783e+07  2.1702109897970453e+07  2.1723004745287009e+07  2.1748560125844508e+07  2.1767152640129190e+07  2.1775311167966861e+07  2.1777135490838092e+07  2.1778850676798839e+07  2.1778631295542505e+07  2.1781844794167787e+07  2.1788750315044679e+07  2.1788225824425034e+07  2.1788283817294698e+07  2.1790832184676647e+07  2.1783541969402548e+07  2.1756730010402929e+07  2.1720777836619504e+07  2.1686857364136498e+07  2.1625701166490275e+07  2.1517813762105271e+07  2.1496042046214428e+07  2.1585009118558470e+07  2.1614190214812681e+07  2.1622010465086780e+07  2.1629998727078255e+07  2.1642603822644353e+07  2.1660255491347346e+07  2.1724134630136985e+07  2.1744702784734562e+07  2.1754313711085547e+07  2.1756243635470271e+07  2.1745848216734629e+07  2.1714723975892533e+07  2.1678001726682071e+07  2.1627033626008146e+07  2.1615811245485395e+07  2.1617874085605729e+07  2.1623244856361032e+07  2.1624879922822602e+07  2.1622436461327344e+07  2.1621200748662807e+07  2.1618868009952869e+07  2.1608505692747578e+07  2.1580658030996546e+07  2.1537089443420518e+07  2.1523677280480646e+07  2.1549685930777274e+07  2.1561909419212040e+07  2.1565902030183416e+07  2.1562659304040544e+07  2.1564130710820686e+07  2.1560735832373075e+07  2.1560072937828522e+07  2.1555315970980771e+07  2.1552995846364811e+07  2.1547302015181050e+07  2.1499917162547287e+07  2.1445352300439261e+07  2.1365070014001559e+07  2.1275837123400252e+07  2.1151827288900897e+07  2.0980843346794859e+07  2.0768035384516384e+07  2.0542718543196935e+07  2.0322191667474389e+07  2.0127710107058384e+07  1.9858509660903390e+07  1.9733834659006115e+07  1.9731024555221993e+07  1.9898990442506954e+07  2.0056090206671782e+07  2.0124421389713664e+07  2.0186230371935174e+07  2.0255469808444746e+07  2.0303295327524614e+07  2.0335981085987531e+07  2.0343152674367819e+07  2.0343222511999618e+07  2.0332180496010855e+07  2.0302566555287492e+07  2.0292403151596520e+07  2.0315329040987648e+07  2.0329485993267309e+07  2.0333956901685320e+07  2.0333958678579874e+07  2.0319392852295894e+07  2.0225759754007056e+07  2.0194404559931744e+07  2.0140182680680852e+07  2.0107973552005671e+07  2.0062776778289936e+07  2.0014520590948910e+07  1.9963014609641626e+07  1.9930173003689397e+07  1.9924078943107467e+07  1.9931696904053640e+07  1.9938941361672599e+07  1.9938424394899253e+07  1.9941384939761791e+07  1.9942807750085223e+07  1.9942633404402636e+07  1.9931568839945227e+07  1.9894891405246384e+07  1.9796308022887491e+07  1.9595404386076882e+07  1.9432035959880654e+07  1.9325574329968698e+07  1.9275831748747099e+07  1.9256974349683445e+07  1.9189028148779288e+07  1.9142020029648893e+07  1.9104431076550946e+07  1.9090749503462929e+07  1.9046051003393929e+07  1.9002492533742212e+07  1.9022378189238131e+07  1.8993351644366853e+07  1.8937270312109459e+07  1.8815542132720217e+07  1.8666919486548856e+07  1.8553586814225119e+07  1.8447272330502108e+07  1.8402462309068445e+07  1.8396974188088533e+07  1.8412327834173679e+07  1.8426585632660057e+07  1.8469061067655601e+07  1.8498418319847375e+07  1.8502123600192592e+07  1.8502961694862355e+07  1.8520270746188018e+07  1.8538692012520809e+07  1.8585301585837696e+07  1.8643793510028355e+07  1.8686069270674028e+07  1.8681948867590800e+07  1.8686880283526506e+07  1.8728827364525221e+07  1.8738191154656824e+07  1.8736072983332049e+07  1.8739697144387420e+07  1.8736532532653190e+07  1.8728591334778912e+07  1.8710977355240107e+07  1.8681026211803183e+07  1.8641446331042904e+07  1.8618406860375613e+07  1.8618998228369262e+07  1.8659915290967893e+07  1.8706610941465870e+07  1.8774237631643623e+07  1.8872268896881636e+07  1.8981673632667124e+07  1.9139381408516072e+07  1.9346715138129335e+07  1.9479573221584644e+07  1.9942308990381353e+07  2.0435307664519429e+07  2.1660170756479815e+07  2.1773154516868830e+07  2.1787903331733003e+07  2.1560078931689017e+07  2.1753499908150829e+07  1.9015773321675129e+07  2.1536210557010081e+07  2.1565107811626058e+07  2.0319531006847899e+07  2.0300999672711316e+07  1.9939818921057250e+07  1.9942511922103442e+07  2.1697697215713188e+07  1.9942306227156673e+07  1.9940535027479198e+07  2.1643898064808998e+07  2.1674664749406185e+07  1.9015775080734819e+07  2.1526053944881253e+07  2.1565109858971000e+07  2.1623234571533885e+07  2.1635090130131345e+07  2.1563524205112003e+07  2.1639554951983832e+07  2.1563504874452777e+07  1.8858205314076766e+07  2.0339357604326840e+07  2.1075413609920960e+07  1.8925823199283380e+07  1.8121456966273829e+07  1.9453138236262519e+07  2.1107614067737225e+07  1.9963506490972769e+07  2.0372555357171174e+07  1.8876053817290947e+07  1.8309835007223848e+07  2.1040182507561591e+07  1.9531591123418797e+07  2.1505939945929416e+07  2.0543781401997015e+07  1.9340694867784094e+07  1.9392952834826279e+07  2.0752090633237917e+07  1.8511038365997225e+07  2.1334926993604388e+07  1.9958332683170225e+07  2.0661224516471706e+07  1.9020390292002700e+07  1.8516833126620989e+07  1.8992408230879653e+07  1.8542023707935177e+07  1.9381481296142910e+07  1.8435975584202807e+07  2.1444480665254954e+07  1.8334298693634275e+07  2.1265096025246706e+07  2.0396752284073442e+07  2.0886650632301230e+07  1.8884523377452753e+07  2.0817769759844072e+07  1.9907121224944834e+07  2.0465939051907465e+07  1.9970849646876991e+07  1.9910202139731862e+07  1.8216405225383818e+07  1.9803931584133968e+07  2.1333861981797539e+07  2.1067834877718084e+07  2.1685421319613371e+07  2.0746068271249570e+07  2.0801830569815483e+07  1.9353132160993677e+07  1.8931819888935447e+07  1.9310268501862165e+07  1.9991924221986786e+07  2.1322578551030941e+07  2.0320079934622105e+07  1.8487950705124058e+07  1.8414908234746139e+07  2.1484812826557744e+07  1.8764162734320931e+07  1.8572973923649035e+07  2.0155883564560585e+07  2.1219311438365310e+07  2.0583919323314343e+07  1.9073334270724040e+07  2.1565612242281895e+07  1.8118710696034055e+07  1.9824521308820080e+07  1.9635951608283304e+07  2.0268816139170475e+07  1.9285607191058252e+07  1.8633916091623694e+07  1.9602027420996122e+07  1.9503911712500833e+07  1.8640393859921169e+07  1.8809980308640260e+07  1.9198871463350628e+07  1.9357091502683144e+07  2.1638225519179624e+07  2.1320428482525777e+07  1.9096353013403937e+07  2.1552778101143017e+07  2.1090496444733385e+07  2.0916414938259352e+07  2.1434538123314627e+07  1.9862066507992581e+07  1.9632925800089128e+07  2.0526285126554769e+07  2.0954697253526296e+07  1.9577937939031638e+07  2.1252574654602520e+07  1.9032834313812423e+07  2.0268724839694727e+07  1.8678543396826856e+07  1.8783297994215373e+07  2.0531860651107416e+07  2.1302245157206342e+07  2.0271651831666421e+07  2.0845203215113793e+07  2.0122181910383478e+07  2.1082081480049752e+07  1.8280695452414166e+07  1.9073438042052653e+07  1.9110857445096299e+07  2.1415199958043005e+07  2.0621491815294728e+07  1.8734602499021418e+07  2.1415476508143585e+07  2.0095343412306923e+07  2.1535443702168271e+07  1.8608585345338833e+07  2.1645140786965489e+07  2.1638761747207060e+07  1.9201695384574499e+07  1.9910916022822496e+07  2.1642158448071536e+07  2.1694231091032121e+07  2.1501255539672296e+07  2.1536425890131511e+07  2.0280124970039513e+07  1.8429562834292650e+07  2.1399383149113432e+07  2.1233863913930453e+07  1.9247467555338424e+07  1.9901580018367127e+07  1.9773550255910534e+07  2.1683351675264988e+07  2.1637484979769412e+07  2.0197144966928571e+07  2.1599715451776963e+07  2.1577876963952634e+07  2.1608772943927933e+07  2.1698762175743345e+07  1.9658887866834320e+07  1.8944713405976780e+07  2.0286329748279020e+07  1.8528948829393666e+07  1.9847691893687300e+07  1.8658195866043981e+07  2.0219184225842487e+07  2.1765082166677184e+07  2.0083757162601691e+07  2.0301605211170882e+07  2.1510930225628946e+07  1.9671354509561032e+07  1.8653177002002925e+07  2.0291716356038619e+07  1.8345638961775154e+07  1.9099648926604509e+07  2.1533479174619433e+07  2.1490730297103893e+07  1.9892780842099577e+07  2.1764714487508144e+07  1.8603889530960474e+07  2.1566806302496981e+07  2.0567471121660002e+07  1.8717154467215411e+07  1.8443339224404529e+07  1.8326925247162107e+07  2.0969332182673793e+07  2.1462715780741964e+07  2.1427068139595926e+07  2.0796022343858466e+07  2.1668210756623201e+07  2.0350265421482641e+07  1.9007348426675763e+07  1.9007468836007118e+07  1.8603587731268197e+07  2.1641779120110173e+07  2.1652250399974681e+07  2.1656440331702191e+07  2.1216325623531565e+07  2.1463481864588216e+07  2.1660054421343379e+07  2.1588346003899273e+07  2.0108280960468046e+07  2.1786323299946357e+07  2.1784566944681622e+07  1.9744559644885361e+07  1.8583362948732913e+07  1.9918898144251645e+07  2.1481079106177416e+07  2.0092510863619573e+07  1.9981186189739913e+07  2.1770576885816962e+07  1.9785145366747987e+07  2.1033280505612236e+07  1.9165645475676790e+07  1.9260597277462915e+07  1.9221325500857145e+07  1.9301155956308134e+07  2.1552356032343354e+07  1.9898112634274792e+07  1.9926919619370315e+07  1.9865394936683215e+07  1.9921433185624983e+07  1.9801281807212722e+07  1.8718002939951975e+07  1.8669343842943169e+07  1.9931048166133501e+07  1.9193055528401818e+07  2.0340967687541004e+07  2.0340276737658840e+07  2.1779969910933025e+07  2.0623883609381478e+07  2.0375699588004503e+07  1.9863668156160202e+07  1.9748167614023112e+07  1.9737898792490669e+07  1.9720735517120164e+07  1.9716439409186460e+07  1.9698539972099070e+07  1.9802145834600180e+07  1.9704198538624812e+07  1.9739594551337488e+07  1.9917007337300051e+07  1.9817744052804433e+07  1.9477626188739561e+07  1.9631359091798097e+07  1.8737839252506498e+07  1.8811607535780594e+07  1.8712964275472865e+07  1.8611803489135526e+07  1.8638758794045605e+07  1.8496984971361637e+07  1.8580420606715851e+07  1.8524136841895305e+07  1.8378020914782278e+07  1.8375521730354235e+07  1.8615456219859492e+07  1.8615884743045811e+07  1.8608545142161518e+07  1.8631454094271485e+07  1.8608539762746386e+07  1.8681563844262604e+07  1.8665015580290813e+07  1.8615889714657281e+07  1.8741953156439278e+07  1.8685972703302972e+07  1.8761306299483463e+07  1.8718495140341714e+07  1.8824025675296079e+07  1.8989586435481533e+07  1.8881156277801167e+07  1.8850784059529800e+07  1.8673116499231149e+07  1.8775267136354007e+07  1.8945617802039932e+07  2.0482724736676358e+07  2.0389833193511363e+07  2.0305285089148626e+07  2.0422861847612422e+07  2.0916712186717384e+07  2.1207643238536958e+07  2.0990168714020945e+07  2.1159171069672886e+07  1.9131320460189655e+07  1.8794588167241644e+07  1.8827900679693066e+07  1.8984971071162112e+07  1.8277181000331949e+07  1.8210787908726405e+07  1.8180296480852250e+07  1.8221809436219383e+07  1.8102508621478487e+07  1.8172686893756170e+07  1.9695696840735737e+07  1.9727065084828481e+07  1.9236312684474662e+07  1.9446491686550662e+07  1.9377667973381240e+07  2.1193666078740884e+07  2.1005321845226612e+07  1.9915829586679410e+07  1.9899305886491898e+07  2.0102398590194467e+07  1.9776555456755005e+07  2.0118450365157902e+07  2.0056278882836476e+07  2.0177654737616871e+07  2.0414219561208867e+07  2.0309114969383355e+07  1.8659288886204444e+07  1.8902913512971066e+07  1.9101515848307103e+07  1.8647310515259486e+07  1.8383262436050743e+07  1.8339454258328155e+07  1.8587473860013679e+07  1.8185553589589499e+07  1.8182763838827565e+07  1.8459338224544715e+07  1.8466388766376268e+07  2.0829610119311165e+07  2.1177925771908607e+07  2.0954997063217666e+07  2.1231710605908412e+07  2.1427577512557872e+07  2.0696608265209503e+07  2.0405776071345862e+07  2.0695625992206007e+07  2.0579778441797588e+07  1.9175589036839698e+07  1.9397828925641634e+07  1.9452851610516496e+07  1.9163164012104392e+07  2.0907776582589455e+07  2.0729590388537418e+07  2.0777227682023719e+07  2.0622466732866712e+07  1.8405291364208359e+07  1.8474192680958755e+07  1.9916455462469131e+07  1.9952280877404038e+07  1.9739759704192791e+07  2.0706513181975394e+07  2.0545915307475246e+07  2.0791542777859010e+07  2.0571453587673828e+07  1.9144428025517620e+07  1.8912154192923348e+07  1.8897560804950353e+07  1.9029038449485369e+07  1.8977060244604662e+07  1.9073654456465542e+07  1.8710316284630980e+07  1.8459229873990066e+07  1.8442193339554936e+07  1.8334684415544659e+07  1.8632904411918979e+07  1.8599819886176802e+07  1.8882376295975514e+07  1.8991362923979744e+07  1.9158809457038894e+07  1.8915589778157759e+07  1.8314772727878686e+07  1.8559544286370240e+07  1.8675039699465118e+07  1.8668377198030714e+07  1.8398198374959592e+07  1.8565044198843680e+07  1.9353195956511747e+07  1.9528935845934335e+07  1.9318281272817075e+07  1.9223940890494008e+07  1.8402608760524008e+07  1.8614256820919115e+07  1.8220098522379503e+07  1.8519671012574274e+07  1.8247876545721184e+07  1.8461437989057507e+07  1.8171685289293002e+07  1.8277369225648399e+07  1.8386664908064902e+07  1.8443527116006825e+07  1.8323356933081280e+07  2.0331735123685643e+07  2.0265355550691877e+07  2.0507338665278595e+07  2.0510213723158516e+07  2.0865482052335575e+07  1.8752870123004265e+07  1.8754152974413346e+07  2.0673198012830574e+07  2.0090958017930850e+07  1.9708378795286953e+07  1.9715867485572249e+07  1.9998551698715854e+07  2.0586995133876972e+07  2.0492812507518690e+07  1.9907275759691488e+07  1.9881283857521795e+07  1.9939007812513683e+07  1.9639016492235400e+07  1.8147051487048391e+07  1.8277484809574906e+07  1.8266811670525525e+07  1.9718720439506665e+07  1.9961392356488504e+07  2.1116830645996936e+07  2.1283796074213609e+07  2.0908802447214026e+07  2.1199083285182610e+07  2.1002054914937623e+07  2.0836340864310272e+07  2.0605301325312037e+07  2.0660359150094885e+07  1.9178258619485822e+07  1.8822155651808307e+07  1.9728832386155594e+07  2.0107582217814706e+07  1.8385301203231040e+07  1.8555541008413922e+07  1.8543472268166911e+07  1.8609065765709925e+07  1.8956789958579514e+07  1.9268233758886226e+07  1.9152376112176754e+07  1.9021402452124972e+07  1.9635854959667929e+07  1.9622160975949895e+07  1.9649068221628748e+07  1.9679351852848414e+07  1.9704212896370124e+07  2.0265747155252445e+07  2.0166405247477751e+07  1.9181504491230577e+07  1.8877416525347058e+07  1.8699461657014336e+07  1.8873182835958805e+07  1.8786909319128156e+07  1.8706966049024254e+07  1.9277698710363973e+07  1.9326460134935334e+07  1.9071596422846280e+07  2.1081597428950764e+07  1.9286946454833526e+07  1.8914050278622482e+07  2.0207451615728617e+07  2.0442085429520559e+07  2.0736342826588232e+07  2.0623831690845557e+07  1.8691695310722083e+07  1.8584082954241637e+07  1.8374379581544265e+07  1.9662561149354104e+07  1.8601641715453260e+07  1.9711112741775040e+07  1.8451626137015436e+07  1.8321810893485822e+07  1.9758985499603927e+07  1.8877387634978496e+07  2.0451082775880877e+07  1.8179448104401574e+07  1.8142228607816864e+07  1.8126677995695990e+07  1.8106370909639876e+07  1.8160735304971106e+07  2.0088736732515138e+07  1.8333415849431265e+07  1.8439898315251548e+07  1.8382821373840678e+07  2.1062740353877969e+07  1.9637609650026575e+07  1.9252726622609448e+07  1.9246813706980389e+07  1.9302330367075060e+07  1.8392526286137372e+07  2.0565222925588999e+07  2.0605185816471983e+07  1.8571293645734865e+07  1.8607917673537556e+07  1.8900897553497035e+07  1.8930410197874073e+07  1.8420593756921031e+07  1.9278847052641254e+07  1.9903412840830348e+07  1.9999710158411492e+07  1.9803902353769470e+07  2.0040632517985262e+07  1.8245688947994035e+07  1.8222741399169248e+07  1.8245398300597288e+07  1.8239628631481215e+07  2.0670852612843893e+07  1.8310859854847219e+07  1.8402112336200185e+07  1.8509753339782912e+07  1.9146102391660206e+07  1.9114797200396623e+07  1.9162992601448398e+07  1.9092418288713455e+07  1.8143690872580372e+07  1.8123720820871849e+07  1.8127045061039992e+07  1.9246542143998519e+07  2.0865057886726916e+07  2.0928668180150781e+07  2.1010006072515767e+07  1.9820884441692661e+07  2.0557344414545186e+07  1.9150450351239860e+07  1.8799237301311433e+07  1.8736750694236815e+07  1.8846411965209208e+07  2.0356049956132874e+07  2.0092910512506846e+07  2.0170838197705790e+07  1.8236501223368425e+07  1.8222143311789479e+07  1.8263897100038659e+07  1.9045500413622718e+07  1.9146425981013346e+07  1.9112402689874806e+07  1.8989556224381577e+07  2.0530814727651220e+07  1.8631171746959116e+07  1.8601861149089474e+07  1.8625052700513240e+07  1.9700443547667507e+07  1.9678098355235089e+07  1.9686154756941374e+07  1.8501155155028522e+07  1.8583386661979254e+07  1.8654980957343936e+07  1.8287660802500330e+07  1.8598499589848239e+07  1.8568398240192194e+07  1.9756841707911149e+07  1.9843333099206887e+07  1.9794262341874469e+07  1.9742699356782027e+07  1.9745011835714702e+07  1.9769386301427424e+07  1.9724024267085582e+07  1.8709608954609953e+07  1.8609958542026579e+07  1.8881069684905149e+07  2.0522304850111485e+07  1.8903414866050739e+07  1.8867907853505097e+07  1.8199950768316444e+07  1.8135435044103131e+07  1.8322646089128915e+07  1.8298027630796254e+07  1.8138578936822355e+07  1.8118836768221274e+07  1.9290841216752689e+07  1.9183971372870948e+07  1.9259903111320261e+07  1.9998164137779772e+07  2.0131940335592255e+07  1.8682460704125784e+07  1.8799728516843673e+07  1.8264765903658893e+07  1.8331562955191985e+07  1.8522283276364323e+07  1.8236917500582911e+07  1.8191528699110586e+07  1.8143961973612141e+07  1.8608534622021213e+07  2.1029937772498827e+07  1.9213989149908725e+07  1.9326680146009948e+07  1.9220926318560217e+07  2.0665659714782611e+07  2.0663044776815124e+07  2.0606334546865050e+07  1.8959887972796265e+07  1.9102431902166914e+07  1.8968869028881028e+07  1.8636379555403702e+07  1.9194367604640909e+07  1.9196385812280312e+07  1.8184351960241605e+07  1.8253846605918761e+07  2.0418122831359763e+07  2.0386054316670544e+07  2.0473679137675505e+07  1.8268487426677741e+07  1.8580367119560447e+07  </DataArray> 
</PointData> 
</Piece>
</UnstructuredGrid>
</VTKFile>