<?xml version="1.0"?>
<VTKFile type="UnstructuredGrid"  version="0.1"  >
<UnstructuredGrid>
<Piece  NumberOfPoints="784" NumberOfCells="1320">
<Points>
<DataArray  type="Float64"  NumberOfComponents="3"  format="ascii">266913.131276 586512.314988 0  266738.13716 587762.325998 0  266363.132677 589012.328643 0  266175.641078 590169.601714 0  265666.575631 591040.7699119999 0  264875.64001 591687.766419 0  264900.636161 591845.049083 0  266088.14152 592012.3229499999 0  265561.959259 592661.17101 0  264288.136855 593037.368683 0  263865.194033 593999.8486949999 0  263850.641856 593236.729596 0  263625.634872 592756.525286 0  262689.574249 593299.848918 0  262475.636737 594003.0907310001 0  261934.554452 594340.929792 0  261725.631329 594932.094409 0  261729.256443 595728.498809 0  262138.136044 595012.330523 0  262288.141035 596262.333669 0  261488.994028 597511.480605 0  261234.15567 598316.338928 0  260815.635063 599014.863821 0  261400.643658 599389.7367680001 0  261322.963374 600022.185065 0  261119.455248 600931.061306 0  261607.436504 601293.0629359999 0  260807.446929 602089.899812 0  260025.642878 602988.868697 0  259613.135827 603937.3854499999 0  259050.643123 604100.987861 0  258411.880065 603988.6335979999 0  257764.357469 604449.872569 0  257971.239668 605320.429125 0  258041.396867 605740.635381 0  257188.143339 606987.394312 0  256038.141198 608112.3554550001 0  254788.141633 609087.4026939999 0  253588.140656 609812.362881 0  252338.135706 609737.4048949999 0  251088.138116 609787.404055 0  249963.12851 610287.399466 0  248613.130524 610462.365857 0  247363.132198 610687.407659 0  246113.130532 610837.411551 0  245832.347438 610918.209918 0  245016.946433 610958.5639439999 0  244313.129646 610762.372259 0  244400.622144 611378.093316 0  243939.669208 612460.8930899999 0  242960.649733 611984.892792 0  242170.381438 611919.647351 0  241888.122919 611112.375656 0  241393.380757 610467.6456149999 0  240594.157528 611306.369822 0  240525.621947 610804.648112 0  240363.123632 610512.3745050001 0  239113.123247 610262.374278 0  239813.12126 609037.412459 0  240588.122952 607812.368199 0  241013.119545 606625.9534560001 0  241454.373249 605724.888025 0  242238.120107 604687.3993 0  243088.121248 603462.362766 0  242860.319451 603007.3932640001 0  241563.116617 603812.361344 0  241778.400913 604327.642217 0  242059.837234 604824.879102 0  241475.620201 604923.2402390001 0  241462.182234 605449.881372 0  240906.219606 605674.888222 0  240241.856192 606891.125066 0  239891.734044 607841.012479 0  239048.653431 608724.889805 0  238118.054545 608974.895967 0  238888.111029 607337.406468 0  239738.119992 606212.362729 0  240288.12044 605687.4075229999 0  240380.212307 604729.521696 0  239347.309632 604603.204501 0  238888.112036 604387.408787 0  237913.11173 604687.401386 0  236784.172023 604499.882783 0  236883.408793 603717.08334 0  236154.933927 603595.565605 0  235688.103943 602912.369264 0  235763.108033 601662.366516 0  236363.110805 600412.35884 0  236738.107995 599162.356577 0  236525.607944 598482.2412899999 0  236138.109208 599362.357613 0  235725.063048 600325.4466510001 0  235091.948926 601408.5220979999 0  235188.10921 600312.366344 0  234375.602405 600833.9674270001 0  234663.109308 599912.358011 0  234138.105122 600062.365644 0  233955.307245 599029.561063 0  233338.103791 598387.401556 0  233988.09795 597862.356384 0  235138.101489 596637.3947750001 0  235563.1039 595387.392428 0  236513.103639 594212.356312 0  237163.10684 592987.3929869999 0  238313.103031 591862.3515540001 0  239513.107028 590812.3512640001 0  240638.102135 589787.387271 0  241463.109549 588587.378486 0  242294.489816 587443.735215 0  242913.101099 586512.341804 0  243544.066915 585474.859604 0  243040.448415 585184.975583 0  242438.10214 585337.38015 0  241313.102353 586562.339499 0  240538.107104 587787.382449 0  240114.641085 588588.939407 0  239388.100256 589437.382238 0  238188.104456 590512.346358 0  236938.100507 591362.349798 0  235813.10453 592537.396388 0  234864.502938 593178.7753880001 0  234463.097651 592862.357267 0  235113.0965 591662.3545979999 0  235713.101522 590412.346099 0  235777.688431 589976.7582779999 0  234943.583145 590706.265132 0  234462.482256 591490.2841159999 0  233801.497784 592112.940187 0  233388.099101 591787.394208 0  234013.093099 590437.393065 0  234776.217248 587148.7548100001 0  235163.093726 586562.3486189999 0  235313.098918 585483.229012 0  235250.59732 584662.298153 0  235588.093896 583337.379493 0  236329.432041 582199.858992 0  237188.096234 581462.3349939999 0  237463.088521 580212.335511 0  238350.592558 579057.652616 0  238591.415797 578574.847681 0  238313.094106 577612.328905 0  239229.696732 577695.769664 0  240195.161018 577513.008613 0  240614.996733 577149.8518770001 0  240663.091715 577412.332622 0  240288.092486 578662.334085 0  239942.357258 579508.095811 0  240438.100019 580212.3334220001 0  241338.095553 580387.375355 0  241238.099828 579137.369157 0  241788.097003 577887.370889 0  241983.554649 577241.9220939999 0  242054.178239 576927.8105029999 0  242588.100699 575737.366175 0  243149.324833 574898.583978 0  243695.278626 573919.517981 0  244268.494418 573724.8454239999 0  244995.134063 573930.2767810001 0  245417.314363 573391.601898 0  243450.599125 571859.479773 0  245776.797908 572599.8353060001 0  246779.639852 572973.285167 0  248034.741935 573186.082054 0  249413.10651 573162.3205520001 0  250496.922226 573271.1521899999 0  251613.105126 573237.3551319999 0  252421.824577 572846.032906 0  253256.245022 572580.4733130001 0  253739.471933 571960.9547369999 0  254174.511864 572149.8346569999 0  254484.944333 571684.194807 0  254384.108649 570891.346712 0  254344.002752 570218.26407 0  255025.609604 570829.0294979999 0  255715.005913 570489.264586 0  256218.846343 570774.828355 0  256834.349083 570508.5908 0  257390.092515 570014.308325 0  257624.431042 568493.478911 0  259355.811717 569380.021819 0  260033.372814 569617.066669 0  262679.741751 570320.699974 0  263289.115756 569524.817815 0  263463.114338 570512.301061 0  264638.198419 570687.3443539999 0  265058.220065 571334.378467 0  265447.561421 572077.90485 0  265488.125257 573137.3446020001 0  265131.937715 573963.293593 0  265432.389648 575093.068786 0  265638.122314 576338.029955 0  265750.630817 577371.8281319999 0  265738.570663 578561.9098850001 0  265875.630866 579139.630549 0  266213.129247 579862.311842 0  266563.130472 581112.314509 0  266238.135356 582362.310259 0  265938.12863 583612.320897 0  265738.131342 584762.3210189999 0  266875.638633 585365.358768 0  264018.7239399826 593650.4646671159 0  262236.3944351029 595831.1252656333 0  241846.246678 605206.1436625 0  240200.622106 608424.8903290001 0  240943.4862974102 610939.7757535663 0  236550.6094 599787.3577085 0  238528.1212051503 608102.9081793013 0  244413.4891967989 572609.5960859474 0  236382.0474488751 598808.3067022427 0  235369.601910944 600933.5380148316 0  235413.099011 591037.3503485 0  235446.2251831186 590266.6553871984 0  240475.5921005 578037.3333535 0  240413.173949154 577324.4280286073 0  240574.037899 606283.0066440001 0  263857.9179445 593618.2891454998 0  264153.4303974913 593343.916675058 0  242042.1833925 604946.7714812499 0  241650.3099635 605465.51584375 0  244613.6985165 572229.6575395 0  236631.8579695 598822.2989335 0  235140.029068 600860.444221 0  241767.7287175 604874.0596705 0  242140.15174975 604817.0853906251 0  234781.8558075 600573.1668855001 0  242091.167571125 604881.9284359375 0  234519.3558565 600373.162719 0  254604.8337712102 583989.0014118921 0  250699.5846056537 594617.3297041012 0  250540.4796469513 602258.2940568649 0  248483.7490186612 580334.7345534252 0  258549.2190328319 577893.951823392 0  257067.0067473103 590016.5327808241 0  243285.0921999099 596333.923437875 0  248333.1386145258 589098.0389905117 0  256142.8445072741 595883.3911551933 0  260245.1368072523 583315.2785712298 0  253472.3380211276 578932.2908163272 0  246432.3347504817 599884.5019511909 0  261555.9240922556 588041.186709004 0  247293.1100123104 605823.8307887657 0  246458.2798550911 593168.8646574575 0  252840.0183145193 588226.5564648228 0  249828.2874404451 584740.7888937403 0  255409.5660975206 600458.8956828594 0  260819.9733392385 574219.403683011 0  252584.2262054711 605722.6603825617 0  254049.8830611471 592547.4852571967 0  250015.4356193061 598425.2225922942 0  245872.072249477 577604.9761853142 0  262002.1583249522 579753.4663046852 0  257732.6630933878 586227.970805314 0  250242.5556457866 577017.3316409125 0  244921.6453001869 581816.6358421432 0  256520.3890639471 580904.824006648 0  240779.0970645865 599524.6679555867 0  257100.1829219198 574459.5922545703 0  239912.2630002034 595231.1172704464 0  244703.0875078634 590068.6945953515 0  242549.5490268674 592874.3693043783 0  251586.0465921376 581796.2215047925 0  246643.189997516 596527.447801719 0  251049.7658069622 591057.6752245198 0  253014.5731561695 596998.6601086652 0  238680.2197353724 584542.2309791476 0  259715.365803504 591937.1938619445 0  254097.157218761 575731.4494927844 0  246806.6408589328 586139.0877599345 0  246136.1179750556 602959.471719323 0  253520.7033332401 602835.180253843 0  244125.4295793909 607538.9817227355 0  252546.8895354472 599881.3279113505 0  258289.0983523553 600397.640191779 0  247518.7952199645 583037.3718217331 0  263140.3959879661 582529.2228421422 0  262894.8586894067 585442.3590432997 0  256968.6320599076 593040.7691844478 0  243573.0187527719 600218.2795730785 0  258888.5766127351 595139.7745218446 0  262588.7569809347 576734.8569237856 0  259318.4257992262 580601.2540325444 0  249963.3812725965 607065.7205847671 0  257494.5307999607 583482.5893534871 0  258906.4757205145 572278.8089438241 0  237751.446593475 587300.5805003279 0  255142.4708720699 604956.7580261135 0  258485.4978753244 597756.9250383095 0  255516.7820591553 587791.39641967 0  239758.4692108706 601926.8203218657 0  255873.0092222999 577739.5085867504
[...]
<PointData  Scalars="f_32-0"> 
<DataArray  type="Float64"  Name="f_32-0"  format="ascii">8.0276124198963111e+06  8.0752452419383209e+06  8.1293249979026578e+06  8.1740822543020891e+06  8.2035157452952508e+06  8.2482178760609673e+06  8.2660777034662534e+06  8.2840665133109167e+06  8.2830287460008143e+06  8.2869572860963689e+06  8.2932562986611053e+06  8.2905336201444278e+06  8.2924399806722468e+06  8.3684536544812471e+06  8.4377474539919831e+06  8.5099129457325190e+06  8.6226231967917420e+06  8.7654696309498847e+06  8.7863012372940164e+06  8.8067881483383663e+06  8.9207615853052959e+06  9.0154077782172188e+06  9.1292138973207995e+06  9.1953150170877166e+06  9.2268084524304755e+06  9.2957320392506737e+06  9.3163719361427017e+06  9.3503118501289748e+06  9.4208456121378057e+06  9.4712316642174106e+06  9.4864755614087526e+06  9.5298747527280170e+06  9.6460034359022211e+06  9.7447272088700216e+06  9.7627970565988906e+06  9.8397919847164713e+06  9.9230723600174040e+06  9.9956051905002668e+06  1.0042129426585170e+07  1.0081733797312286e+07  1.0139749013239779e+07  1.0195987052888503e+07  1.0249042995768080e+07  1.0298697712593954e+07  1.0344474396967206e+07  1.0354144794724049e+07  1.0378674894647291e+07  1.0408615156464893e+07  1.0430294418679621e+07  1.0439799512416631e+07  1.0441922403230688e+07  1.0443920321121637e+07  1.0443693481439002e+07  1.0447471109140495e+07  1.0455496563511241e+07  1.0454888760026399e+07  1.0454958362315515e+07  1.0457916680639513e+07  1.0449450317976212e+07  1.0418325485795636e+07  1.0376783969752226e+07  1.0337834734835399e+07  1.0267516147372941e+07  1.0137084037712092e+07  1.0097904885974748e+07  1.0182995861404277e+07  1.0216288411805181e+07  1.0225435935158085e+07  1.0234954021823512e+07  1.0250183886302179e+07  1.0272032775643047e+07  1.0351716975636886e+07  1.0377422510215277e+07  1.0389407236712331e+07  1.0391806713844061e+07  1.0378851990448983e+07  1.0339953648517061e+07  1.0294111089688512e+07  1.0229857745200656e+07  1.0212493468637249e+07  1.0213247505776796e+07  1.0217612955563389e+07  1.0218794730411110e+07  1.0215009808868306e+07  1.0212506003753033e+07  1.0208992965942984e+07  1.0194654954402478e+07  1.0156516134744540e+07  1.0095410480580434e+07  1.0073968048286961e+07  1.0107810263686374e+07  1.0124298978297785e+07  1.0129753212479705e+07  1.0125291295588125e+07  1.0127249101611583e+07  1.0122574323890718e+07  1.0121604520673815e+07  1.0114991319565861e+07  1.0111726535798518e+07  1.0103926927049275e+07  1.0038717847036375e+07  9.9630794441819042e+06  9.8521341161150727e+06  9.7289272461328525e+06  9.5582142321957517e+06  9.3210703970232271e+06  9.0251493735698014e+06  8.7181551924341712e+06  8.4575646882133055e+06  8.2863413937854208e+06  8.1806503576587774e+06  8.2563554420908680e+06  8.4082834430451412e+06  8.7600359423282593e+06  8.9877832952623200e+06  9.0781594634910300e+06  9.1566022874498684e+06  9.2416103303079810e+06  9.2991615422918368e+06  9.3380551784826778e+06  9.3464588189497106e+06  9.3465395023629293e+06  9.3335620321442261e+06  9.2979836718121469e+06  9.2852999217554424e+06  9.3120825385660231e+06  9.3287701965035126e+06  9.3340025385831296e+06  9.3340000568607729e+06  9.3168638176736049e+06  9.2020795185802151e+06  9.1624164607506581e+06  9.0923303736850638e+06  9.0495252456927486e+06  8.9879995632939246e+06  8.9203688877894282e+06  8.8446751830156744e+06  8.7918279257616103e+06  8.7756939234995991e+06  8.7831363828734588e+06  8.7911573414301258e+06  8.7903627256423067e+06  8.7936989782912321e+06  8.7953888481191751e+06  8.7951810148719307e+06  8.7816693687835503e+06  8.7344576142324898e+06  8.5955799045966025e+06  8.2966209016539780e+06  8.0673113943897877e+06  7.9306939453646215e+06  7.8712967234052522e+06  7.8496220995061342e+06  7.7744743543080287e+06  7.7248187949851640e+06  7.6866299878366617e+06  7.6721911824113149e+06  7.6247238905171668e+06  7.5818950350299310e+06  7.6062573383870265e+06  7.5740022023137920e+06  7.5117585471292911e+06  7.3808932921829252e+06  7.2407450934585072e+06  7.1616684810831584e+06  7.1236822819933305e+06  7.1400937623038115e+06  7.1929871656668950e+06  7.2465266961387089e+06  7.2803177453029212e+06  7.3611888902144171e+06  7.4092582767908499e+06  7.4146707820467185e+06  7.4173488530473430e+06  7.4442536088452982e+06  7.4704948781951936e+06  7.5275086876034597e+06  7.5842787532337839e+06  7.6194545181546453e+06  7.6323949852108276e+06  7.6485789929222688e+06  7.7169310616808301e+06  7.7264015914612049e+06  7.7271882009291425e+06  7.7364212082099877e+06  7.7368300647364175e+06  7.7346971788130933e+06  7.7266552291637119e+06  7.7106552438428542e+06  7.6879851407854594e+06  7.6668681570647554e+06  7.6500356865198361e+06  7.6348081527494136e+06  7.6373303300673012e+06  7.6531445210114783e+06  7.6840095354616633e+06  7.7204519728850015e+06  7.7908214154318143e+06  7.9071575975454738e+06  7.9915247560489671e+06  8.2925791886104923e+06  8.7917539408894889e+06  1.0307227178183846e+07  1.0437380717940629e+07  1.0454513480445942e+07  1.0128019639118804e+07  1.0388393334501732e+07  7.5991525086218538e+06  1.0089930594550882e+07  1.0128664615321858e+07  9.3184923774843160e+06  9.2951933273651376e+06  8.7917958986994307e+06  8.7950365031019580e+06  1.0318687984693233e+07  8.2925796418131534e+06  8.2908754383368008e+06  1.0288518645594290e+07  1.0323856975986980e+07  7.5991574734607935e+06  1.0079062054629249e+07  1.0128667588077504e+07  1.0226879263432570e+07  1.0278366110238722e+07  1.0126424879729986e+07  1.0283515429541975e+07  1.0126397488971584e+07  7.1473347544159815e+06  8.5593158432096727e+06  9.6455525081607532e+06  7.2756566679928536e+06  7.1106284160827529e+06  7.4425989244170627e+06  9.5422535073635932e+06  7.8732852715332583e+06  8.6852308250068817e+06  7.4372861994034890e+06  6.9529527432174953e+06  9.5831357168577462e+06  7.8837540302613825e+06  1.0139174887517309e+07  8.6851373942189291e+06  7.2100975975827966e+06  7.5962723838465568e+06  9.2005128211982455e+06  7.5537205480510741e+06  9.9231405803406183e+06  8.0711781249234155e+06  9.0875178403494414e+06  7.5009656800500285e+06  7.3157909823458428e+06  7.1205446506684842e+06  7.0455981390865529e+06  7.8079866416453077e+06  7.2183581523146331e+06  9.9921619047726709e+06  7.3014286833504941e+06  9.7222660690952092e+06  8.3743196825504713e+06  9.1773005349358115e+06  7.3314486748708170e+06  9.2102869785484187e+06  7.8683507218672605e+06  8.8032279037035648e+06  8.8689222651343774e+06  8.1632473736474020e+06  6.9410467293467708e+06  7.8888360555180013e+06  9.9502118843445554e+06  9.6072860821433272e+06  1.0337096605511559e+07  9.2090405947283693e+06  9.2498057825376429e+06  7.6440242475027302e+06  7.5506763090470377e+06  7.8113477126825582e+06  8.1717781300683683e+06  9.8822747793214396e+06  8.6401035419417024e+06  7.5315731065152762e+06  7.2492629066782324e+06  1.0103800622778703e+07  7.2407162739110393e+06  7.5605778017571699e+06  9.1165351340144370e+06  9.7764306273198258e+06  8.9698486999737062e+06  6.8964779063748829e+06  1.0148385733122820e+07  7.0051103518854547e+06  8.1513950272671031e+06  8.3102496302593555e+06  8.3542566081039011e+06  7.8165127668610653e+06  7.2207533103483319e+06  8.0351737343101446e+06  7.4287506503023580e+06  7.1311355781071149e+06  7.3279223734486774e+06  7.5959658733643135e+06  7.5152434187613251e+06  1.0282110326137794e+07  9.9237494652167000e+06  7.3524485220511230e+06  1.0189971877085067e+07  9.5799918146226127e+06  9.4560636313848775e+06  9.9586574422600511e+06  8.7038583163702395e+06  7.9501768883609325e+06  8.8972838848445341e+06  9.4486840346005131e+06  7.5793705269499030e+06  9.8629708009787854e+06  6.9961599308294710e+06  8.5041417021556590e+06  7.6901437139810901e+06  7.2107899311230388e+06  8.7948591004660130e+06  9.7915554431613442e+06  8.2015672690996192e+06  9.1421028652475886e+06  8.1147614580006395e+06  9.4628214302379768e+06  7.3288651318295561e+06  7.4170512475372776e+06  7.4615376696592178e+06  9.9238850038246904e+06  8.7394139455379210e+06  7.5385624139175024e+06  1.0011528729163326e+07  8.2103945072656879e+06  1.0099669235493477e+07  7.6530424158248957e+06  1.0291133508434532e+07  1.0283069299922500e+07  7.7630131176216519e+06  8.2644062505954690e+06  1.0286629667418195e+07  1.0345677937035391e+07  1.0047786094511356e+07  1.0089343050712951e+07  9.2694921767889373e+06  7.3385884060546197e+06  1.0006553527023200e+07  9.7892208066808861e+06  7.8330847848037407e+06  8.2599234813062409e+06  8.1529517660001162e+06  1.0334012929600170e+07  1.0281161635695526e+07  8.5096115773557276e+06  1.0192827187898885e+07  1.0211425208319869e+07  1.0248206105573542e+07  1.0350413335024612e+07  8.1089660971330060e+06  7.5061786428493345e+06  9.2785905359782148e+06  7.4806306385146528e+06  8.2130188588487096e+06  7.5874148298431775e+06  9.1947432155048251e+06  1.0428056763902683e+07  9.0193572014664914e+06  9.2956026460205298e+06  1.0058609664227342e+07  8.3104927268673647e+06  7.6183768383880714e+06  9.2838390809699334e+06  7.0295571535519641e+06  7.6784899028990017e+06  1.0085844112852655e+07  1.0027146143082643e+07  8.7387377963116206e+06  1.0427584990321163e+07  7.1437258461686028e+06  1.0138822876419630e+07  8.9498760861441959e+06  7.7243679590847995e+06  7.3294469850473925e+06  7.1335923229123428e+06  9.4586582554245628e+06  1.0072378070249023e+07  1.0012523447488604e+07  9.2374754074816350e+06  1.0316542268344227e+07  8.6900098398887254e+06  7.5896491228395533e+06  7.5898681317697484e+06  7.5585841228220435e+06  1.0286087615712991e+07  1.0298127991652187e+07  1.0302984284195498e+07  9.7673418716737386e+06  9.9932521186937317e+06  1.0305504578996133e+07  1.0222300719525307e+07  9.0564215912519898e+06  1.0452680214234205e+07  1.0450644014184946e+07  8.5209573248766344e+06  7.6225310209204173e+06  8.7671822742080986e+06  1.0106845624563182e+07  8.4138214361989796e+06  8.8766706645963341e+06  1.0434298031799683e+07  8.5908989044481888e+06  9.5431062032164186e+06  7.7682694493824216e+06  7.8524400743519375e+06  7.8095438491587164e+06  7.8969690988420462e+06  1.0111212041231858e+07  8.2583172548941076e+06  8.2821248160934960e+06  8.2315645748648187e+06  8.2769556813761741e+06  8.1864890573378494e+06  7.7137047291019401e+06  7.6607028598775007e+06  8.2652692474071756e+06  7.7746338484356888e+06  9.3439072971072569e+06  9.3430966231338233e+06  1.0445307968090776e+07  8.7925712817348372e+06  8.4523675450208485e+06  8.0466358866945254e+06  8.0854000448336219e+06  8.1591279112048801e+06  8.3277280146142077e+06  8.1843769104445968e+06  8.2948682185772350e+06  8.5932618949713856e+06  8.3462157343406528e+06  8.4904478860759512e+06  8.7930368722858708e+06  8.6342710630418733e+06  8.0693900290179253e+06  8.3338136893311469e+06  7.3032992470866665e+06  7.3606473639447680e+06  7.2674036275977315e+06  7.1985153305184385e+06  7.2032781538967732e+06  7.1348808653179724e+06  7.1589903326428877e+06  7.1258732480288893e+06  7.1218204154124623e+06  7.1753934242707519e+06  7.6656555748769771e+06  7.6582199261678411e+06  7.6542810959719187e+06  7.6409730576241566e+06  7.6445690335870991e+06  7.6346884871011665e+06  7.6219414585049842e+06  7.6322626296195509e+06  7.6445587814556928e+06  7.6228643498856230e+06  7.6243142067937348e+06  7.6296035567239504e+06  7.6451699006154733e+06  7.6819426771248467e+06  7.6557044087985475e+06  6.9913106691459110e+06  7.2238668565703323e+06  7.1431224460318116e+06  7.0621538910160474e+06  8.7992552176470980e+06  8.6713111022733040e+06  8.4646850175771136e+06  8.6592080495081153e+06  9.4407076539582722e+06  9.7985082554834355e+06  9.5493433686408438e+06  9.7518727255218960e+06  7.4428282197083002e+06  7.2234344459404210e+06  7.2058753380607711e+06  7.2963692425663816e+06  7.2231253678977294e+06  7.1314210614396613e+06  7.1805731125310184e+06  7.1684930220226925e+06  7.0521245008490542e+06  7.1965860468209367e+06  7.8393156946112029e+06  7.8056562499942863e+06  7.1151663188650273e+06  7.3744053167338977e+06  7.4288143520204760e+06  9.6367774308957458e+06  9.3689245944632031e+06  7.8375780389854349e+06  7.8474099408717761e+06  8.0541826081372313e+06  7.7328900379139557e+06  8.0169731257409127e+06  7.9382240362213785e+06  8.4026979039059784e+06  8.7350412936873492e+06  8.5842813875064775e+06  7.3036533992868857e+06  7.4756926248331890e+06  7.6194231211224226e+06  7.3271394108685702e+06  6.9102854745770991e+06  7.1102124257298876e+06  7.1401480863849949e+06  6.8631678640112430e+06  6.9620655934088696e+06  7.1087019549002834e+06  7.0088145657238904e+06  9.3218421271138098e+06  9.7653335220682677e+06  9.4958707175327763e+06  9.8158116370566934e+06  1.0056511643915536e+07  8.9835977667564303e+06  8.4313309558455963e+06  8.9143468807502929e+06  8.6932982072310857e+06  6.9933520052690301e+06  7.2678542090451596e+06  7.3916914859001534e+06  7.0416255662845615e+06  9.4045560522339251e+06  9.1794330594322253e+06  9.2251396485378332e+06  9.0295809626445435e+06  7.4339835778607093e+06  7.5305547911078539e+06  7.9619903061775379e+06  8.0850562642598683e+06  7.7614072407250917e+06  9.1151784602182209e+06  8.9179280154274683e+06  9.2816606231511980e+06  8.9157007122096382e+06  7.6311628632546877e+06  7.4125531605139747e+06  7.3331544387109699e+06  7.4368773805219056e+06  7.5110844721260099e+06  7.6264343654819485e+06  7.3736579208423477e+06  7.4239907235303484e+06  7.2395400787323341e+06  7.3157348572612228e+06  7.4173854289731216e+06  7.4622076455104081e+06  7.1676270741774477e+06  6.9264290419918587e+06  7.2797577203675359e+06  6.8759429000984840e+06  6.8836024796768082e+06  7.0527256942986436e+06  7.1731687919859812e+06  7.1407061349224150e+06  6.9656525795161156e+06  7.0833121051467992e+06  7.6844150277839992e+06  8.0829998377786502e+06  7.7960535795568088e+06  7.5953926210850161e+06  7.2403560056029502e+06  7.2590414835978989e+06  7.0949238683469649e+06  7.2098321916747196e+06  7.1115281133052651e+06  7.4518958745967112e+06  7.1038369554984616e+06  7.3097481659495784e+06  7.3199341955138305e+06  7.4032222739967145e+06  7.2124153387457328e+06  8.2510996627710927e+06  8.2187543787856447e+06  8.5412756838422418e+06  8.5897326145935114e+06  9.1512990123329870e+06  7.2602200091932211e+06  7.2377866581537686e+06  9.0020976167800967e+06  8.1036022670186283e+06  7.6746815519161150e+06  7.6349413866470922e+06  8.0347868020440415e+06  8.9849654996735100e+06  8.8486301449163742e+06  8.7755038838584404e+06  8.7411056832660027e+06  8.1451478946303306e+06  7.8361226241268404e+06  6.9564110720828986e+06  6.9698674516467610e+06  7.0306731894349186e+06  7.7581257152973590e+06  7.9790120837280490e+06  9.7048004103644360e+06  9.8990041903404742e+06  9.4169705671215113e+06  9.7744509608093444e+06  9.5160893069898318e+06  9.3424882881140485e+06  9.0112691557161976e+06  9.0736548032755051e+06  7.4799211731128199e+06  7.5165259464215385e+06  7.7685104906324483e+06  8.3688155167965507e+06  7.4328883325511636e+06  7.5539359355409713e+06  7.5840913381277155e+06  7.3063876553371223e+06  7.3661391564567992e+06  7.1082101100712838e+06  7.1083072845913395e+06  6.8762753441680064e+06  7.9077157927158065e+06  8.2001310482889526e+06  8.3071385372545142e+06  8.4104337454356793e+06  8.4460176400711648e+06  8.2754991474625999e+06  8.2562239340378270e+06  7.6171296426645303e+06  7.2905009329464687e+06  7.1484536309143715e+06  7.3038297451776071e+06  7.2653275161584299e+06  7.2276729031615425e+06  7.5505002816499090e+06  7.4285616449737558e+06  7.1958602658805940e+06  9.6651153114102818e+06  7.2639436775572775e+06  7.2751081686161850e+06  8.0850234811614491e+06  8.4380330665453337e+06  8.9486882850209624e+06  8.7547252848793548e+06  7.5615608345356304e+06  7.6359063594413362e+06  7.2386122863435447e+06  8.2042073693420878e+06  7.6006667409790168e+06  8.4472721919115670e+06  7.0533876969606504e+06  7.0646831990361409e+06  8.5464837532082032e+06  6.9904525025942661e+06  8.7291776220018994e+06  7.1647001111049270e+06  7.1005878874348328e+06  7.1252853887272365e+06  7.0781511354150875e+06  7.1791738225981984e+06  7.9621670054690437e+06  6.9039960263901912e+06  7.0368243722102977e+06  6.9660837074679537e+06  9.6296009884913657e+06  7.5527162382944692e+06  7.0936945327413622e+06  7.1125017966548307e+06  7.2105015964003289e+06  7.4389471591703007e+06  8.9350801176105067e+06  8.9891711590389442e+06  7.2749842398648802e+06  7.3281071249481877e+06  7.0145152100820933e+06  6.9579203673017779e+06  6.9484291483833930e+06  7.6263145959223164e+06  7.8356168941818373e+06  7.9825935117860427e+06  7.7251074140728321e+06  8.0607521416674126e+06  6.8833458971292675e+06  7.0190272370740641e+06  6.9499968248123899e+06  6.9834447187782256e+06  9.1038637043910008e+06  7.2106841975764968e+06  7.2479177912973296e+06  7.2855513871230688e+06  6.9861073115562387e+06  6.9247949182775393e+06  6.9815570185898980e+06  6.9643273588853721e+06  6.9830263288646704e+06  7.0336675327720903e+06  6.9803918901631944e+06  7.3052827374751503e+06  9.3818101452005263e+06  9.4685523915339634e+06  9.5757766230782438e+06  8.6463641505316794e+06  8.9424490602207296e+06  7.1133979470055709e+06  7.2003588862917870e+06  7.1690872416182049e+06  7.2389928036653483e+06  8.3104678435645634e+06  8.0117278109073117e+06  8.0863997154144943e+06  7.2500002835832862e+06  7.2599006474096766e+06  7.3096235752802780e+06  7.4180241464027315e+06  7.4981699469882902e+06  7.4235778980585635e+06  7.3319546771411123e+06  8.5837806609329656e+06  7.6112550760979438e+06  7.5678064254207090e+06  7.5921874317970658e+06  8.3964253460372332e+06  8.3748705709047951e+06  8.3777135742159691e+06  7.0535993112772293e+06  7.1118829406518042e+06  7.1825294456488462e+06  7.1163901185166398e+06  7.6279455645208508e+06  7.5919307600994781e+06  8.5372070846209060e+06  8.6828589887303803e+06  8.6020438679185715e+06  8.5173454511177633e+06  8.5189129747456443e+06  8.5646480184434988e+06  8.4662483345837910e+06  7.2475656879330957e+06  7.6186106237538289e+06  6.9274411527594468e+06  8.8510412035613786e+06  7.2425252437524209e+06  7.2303215906650228e+06  7.1994263880039202e+06  7.0753706065824861e+06  7.2150758119006855e+06  7.2008005340339253e+06  7.0557911034972556e+06  7.0663821771224905e+06  7.2463698350940477e+06  7.0894863538229959e+06  7.2590167502009766e+06  7.9499708457410950e+06  8.0036174922603089e+06  7.3215146215388123e+06  7.4039669415236209e+06  6.8461515583731756e+06  6.8720460923050810e+06  7.0735040257023908e+06  6.8406311097527789e+06  7.0343279120585490e+06  6.9404496481442060e+06  7.1265506215587184e+06  9.5961841641600914e+06  7.0327647784123234e+06  7.1770607996145338e+06  7.1481167135704914e+06  9.0908432176501621e+06  9.0906669613007940e+06  9.0106127394932844e+06  7.3762272823541136e+06  7.5165746914238492e+06  7.3459531780635230e+06  7.1528994728964502e+06  7.5193678633066816e+06  7.5962350529177012e+06  7.0198634460467827e+06  7.0656663332460746e+06  8.3875607599064419e+06  8.3391989457947956e+06  8.4811465921694785e+06  6.9956523261614768e+06  7.5791846542116646e+06  </DataArray> 
</PointData> 
</Piece>
</UnstructuredGrid>
</VTKFile>