<?xml version="1.0"?>
<VTKFile type="UnstructuredGrid"  version="0.1"  >
<UnstructuredGrid>
<Piece  NumberOfPoints="784" NumberOfCells="1320">
<Points>
<DataArray  type="Float64"  NumberOfComponents="3"  format="ascii">266913.131276 586512.314988 0  266738.13716 587762.325998 0  266363.132677 589012.328643 0  266175.641078 590169.601714 0  265666.575631 591040.7699119999 0  264875.64001 591687.766419 0  264900.636161 591845.049083 0  266088.14152 592012.3229499999 0  265561.959259 592661.17101 0  264288.136855 593037.368683 0  263865.194033 593999.8486949999 0  263850.641856 593236.729596 0  263625.634872 592756.525286 0  262689.574249 593299.848918 0  262475.636737 594003.0907310001 0  261934.554452 594340.929792 0  261725.631329 594932.094409 0  261729.256443 595728.498809 0  262138.136044 595012.330523 0  262288.141035 596262.333669 0  261488.994028 597511.480605 0  261234.15567 598316.338928 0  260815.635063 599014.863821 0  261400.643658 599389.7367680001 0  261322.963374 600022.185065 0  261119.455248 600931.061306 0  261607.436504 601293.0629359999 0  260807.446929 602089.899812 0  260025.642878 602988.868697 0  259613.135827 603937.3854499999 0  259050.643123 604100.987861 0  258411.880065 603988.6335979999 0  257764.357469 604449.872569 0  257971.239668 605320.429125 0  258041.396867 605740.635381 0  257188.143339 606987.394312 0  256038.141198 608112.3554550001 0  254788.141633 609087.4026939999 0  253588.140656 609812.362881 0  252338.135706 609737.4048949999 0  251088.138116 609787.404055 0  249963.12851 610287.399466 0  248613.130524 610462.365857 0  247363.132198 610687.407659 0  246113.130532 610837.411551 0  245832.347438 610918.209918 0  245016.946433 610958.5639439999 0  244313.129646 610762.372259 0  244400.622144 611378.093316 0  243939.669208 612460.8930899999 0  242960.649733 611984.892792 0  242170.381438 611919.647351 0  241888.122919 611112.375656 0  241393.380757 610467.6456149999 0  240594.157528 611306.369822 0  240525.621947 610804.648112 0  240363.123632 610512.3745050001 0  239113.123247 610262.374278 0  239813.12126 609037.412459 0  240588.122952 607812.368199 0  241013.119545 606625.9534560001 0  241454.373249 605724.888025 0  242238.120107 604687.3993 0  243088.121248 603462.362766 0  242860.319451 603007.3932640001 0  241563.116617 603812.361344 0  241778.400913 604327.642217 0  242059.837234 604824.879102 0  241475.620201 604923.2402390001 0  241462.182234 605449.881372 0  240906.219606 605674.888222 0  240241.856192 606891.125066 0  239891.734044 607841.012479 0  239048.653431 608724.889805 0  238118.054545 608974.895967 0  238888.111029 607337.406468 0  239738.119992 606212.362729 0  240288.12044 605687.4075229999 0  240380.212307 604729.521696 0  239347.309632 604603.204501 0  238888.112036 604387.408787 0  237913.11173 604687.401386 0  236784.172023 604499.882783 0  236883.408793 603717.08334 0  236154.933927 603595.565605 0  235688.103943 602912.369264 0  235763.108033 601662.366516 0  236363.110805 600412.35884 0  236738.107995 599162.356577 0  236525.607944 598482.2412899999 0  236138.109208 599362.357613 0  235725.063048 600325.4466510001 0  235091.948926 601408.5220979999 0  235188.10921 600312.366344 0  234375.602405 600833.9674270001 0  234663.109308 599912.358011 0  234138.105122 600062.365644 0  233955.307245 599029.561063 0  233338.103791 598387.401556 0  233988.09795 597862.356384 0  235138.101489 596637.3947750001 0  235563.1039 595387.392428 0  236513.103639 594212.356312 0  237163.10684 592987.3929869999 0  238313.103031 591862.3515540001 0  239513.107028 590812.3512640001 0  240638.102135 589787.387271 0  241463.109549 588587.378486 0  242294.489816 587443.735215 0  242913.101099 586512.341804 0  243544.066915 585474.859604 0  243040.448415 585184.975583 0  242438.10214 585337.38015 0  241313.102353 586562.339499 0  240538.107104 587787.382449 0  240114.641085 588588.939407 0  239388.100256 589437.382238 0  238188.104456 590512.346358 0  236938.100507 591362.349798 0  235813.10453 592537.396388 0  234864.502938 593178.7753880001 0  234463.097651 592862.357267 0  235113.0965 591662.3545979999 0  235713.101522 590412.346099 0  235777.688431 589976.7582779999 0  234943.583145 590706.265132 0  234462.482256 591490.2841159999 0  233801.497784 592112.940187 0  233388.099101 591787.394208 0  234013.093099 590437.393065 0  234776.217248 587148.7548100001 0  235163.093726 586562.3486189999 0  235313.098918 585483.229012 0  235250.59732 584662.298153 0  235588.093896 583337.379493 0  236329.432041 582199.858992 0  237188.096234 581462.3349939999 0  237463.088521 580212.335511 0  238350.592558 579057.652616 0  238591.415797 578574.847681 0  238313.094106 577612.328905 0  239229.696732 577695.769664 0  240195.161018 577513.008613 0  240614.996733 577149.8518770001 0  240663.091715 577412.332622 0  240288.092486 578662.334085 0  239942.357258 579508.095811 0  240438.100019 580212.3334220001 0  241338.095553 580387.375355 0  241238.099828 579137.369157 0  241788.097003 577887.370889 0  241983.554649 577241.9220939999 0  242054.178239 576927.8105029999 0  242588.100699 575737.366175 0  243149.324833 574898.583978 0  243695.278626 573919.517981 0  244268.494418 573724.8454239999 0  244995.134063 573930.2767810001 0  245417.314363 573391.601898 0  243450.599125 571859.479773 0  245776.797908 572599.8353060001 0  246779.639852 572973.285167 0  248034.741935 573186.082054 0  249413.10651 573162.3205520001 0  250496.922226 573271.1521899999 0  251613.105126 573237.3551319999 0  252421.824577 572846.032906 0  253256.245022 572580.4733130001 0  253739.471933 571960.9547369999 0  254174.511864 572149.8346569999 0  254484.944333 571684.194807 0  254384.108649 570891.346712 0  254344.002752 570218.26407 0  255025.609604 570829.0294979999 0  255715.005913 570489.264586 0  256218.846343 570774.828355 0  256834.349083 570508.5908 0  257390.092515 570014.308325 0  257624.431042 568493.478911 0  259355.811717 569380.021819 0  260033.372814 569617.066669 0  262679.741751 570320.699974 0  263289.115756 569524.817815 0  263463.114338 570512.301061 0  264638.198419 570687.3443539999 0  265058.220065 571334.378467 0  265447.561421 572077.90485 0  265488.125257 573137.3446020001 0  265131.937715 573963.293593 0  265432.389648 575093.068786 0  265638.122314 576338.029955 0  265750.630817 577371.8281319999 0  265738.570663 578561.9098850001 0  265875.630866 579139.630549 0  266213.129247 579862.311842 0  266563.130472 581112.314509 0  266238.135356 582362.310259 0  265938.12863 583612.320897 0  265738.131342 584762.3210189999 0  266875.638633 585365.358768 0  264018.7239399826 593650.4646671159 0  262236.3944351029 595831.1252656333 0  241846.246678 605206.1436625 0  240200.622106 608424.8903290001 0  240943.4862974102 610939.7757535663 0  236550.6094 599787.3577085 0  238528.1212051503 608102.9081793013 0  244413.4891967989 572609.5960859474 0  236382.0474488751 598808.3067022427 0  235369.601910944 600933.5380148316 0  235413.099011 591037.3503485 0  235446.2251831186 590266.6553871984 0  240475.5921005 578037.3333535 0  240413.173949154 577324.4280286073 0  240574.037899 606283.0066440001 0  263857.9179445 593618.2891454998 0  264153.4303974913 593343.916675058 0  242042.1833925 604946.7714812499 0  241650.3099635 605465.51584375 0  244613.6985165 572229.6575395 0  236631.8579695 598822.2989335 0  235140.029068 600860.444221 0  241767.7287175 604874.0596705 0  242140.15174975 604817.0853906251 0  234781.8558075 600573.1668855001 0  242091.167571125 604881.9284359375 0  234519.3558565 600373.162719 0  254604.8337712102 583989.0014118921 0  250699.5846056537 594617.3297041012 0  250540.4796469513 602258.2940568649 0  248483.7490186612 580334.7345534252 0  258549.2190328319 577893.951823392 0  257067.0067473103 590016.5327808241 0  243285.0921999099 596333.923437875 0  248333.1386145258 589098.0389905117 0  256142.8445072741 595883.3911551933 0  260245.1368072523 583315.2785712298 0  253472.3380211276 578932.2908163272 0  246432.3347504817 599884.5019511909 0  261555.9240922556 588041.186709004 0  247293.1100123104 605823.8307887657 0  246458.2798550911 593168.8646574575 0  252840.0183145193 588226.5564648228 0  249828.2874404451 584740.7888937403 0  255409.5660975206 600458.8956828594 0  260819.9733392385 574219.403683011 0  252584.2262054711 605722.6603825617 0  254049.8830611471 592547.4852571967 0  250015.4356193061 598425.2225922942 0  245872.072249477 577604.9761853142 0  262002.1583249522 579753.4663046852 0  257732.6630933878 586227.970805314 0  250242.5556457866 577017.3316409125 0  244921.6453001869 581816.6358421432 0  256520.3890639471 580904.824006648 0  240779.0970645865 599524.6679555867 0  257100.1829219198 574459.5922545703 0  239912.2630002034 595231.1172704464 0  244703.0875078634 590068.6945953515 0  242549.5490268674 592874.3693043783 0  251586.0465921376 581796.2215047925 0  246643.189997516 596527.447801719 0  251049.7658069622 591057.6752245198 0  253014.5731561695 596998.6601086652 0  238680.2197353724 584542.2309791476 0  259715.365803504 591937.1938619445 0  254097.157218761 575731.4494927844 0  246806.6408589328 586139.0877599345 0  246136.1179750556 602959.471719323 0  253520.7033332401 602835.180253843 0  244125.4295793909 607538.9817227355 0  252546.8895354472 599881.3279113505 0  258289.0983523553 600397.640191779 0  247518.7952199645 583037.3718217331 0  263140.3959879661 582529.2228421422 0  262894.8586894067 585442.3590432997 0  256968.6320599076 593040.7691844478 0  243573.0187527719 600218.2795730785 0  258888.5766127351 595139.7745218446 0  262588.7569809347 576734.8569237856 0  259318.4257992262 580601.2540325444 0  249963.3812725965 607065.7205847671 0  257494.5307999607 583482.5893534871 0  258906.4757205145 572278.8089438241 0  237751.446593475 587300.5805003279 0  255142.4708720699 604956.7580261135 0  258485.4978753244 597756.9250383095 0  255516.7820591553 587791.39641967 0  239758.4692108706 601926.8203218657 0  255873.0092222999 577739.5085867504
[...]
<PointData  Scalars="f_32-0"> 
<DataArray  type="Float64"  Name="f_32-0"  format="ascii">9.9766465907692481e+06  1.0023934583371557e+07  1.0078217365249896e+07  1.0121894904993992e+07  1.0150219757669285e+07  1.0191585041095302e+07  1.0207190832064440e+07  1.0222353570333041e+07  1.0221562519162912e+07  1.0225691247039517e+07  1.0230963550550662e+07  1.0228815553524176e+07  1.0231287937635140e+07  1.0293226830664927e+07  1.0345669792280629e+07  1.0398553669106202e+07  1.0479084729552517e+07  1.0579241801477801e+07  1.0593688706382858e+07  1.0608046140910601e+07  1.0687748332307110e+07  1.0753840234382797e+07  1.0833406260447713e+07  1.0879499052541452e+07  1.0901515381748863e+07  1.0949727856120689e+07  1.0964154855142998e+07  1.0988013434724325e+07  1.1037494975868745e+07  1.1072817148127984e+07  1.1083543030699125e+07  1.1114122376719136e+07  1.1195995961532436e+07  1.1266144498503337e+07  1.1279072047703415e+07  1.1334349794086881e+07  1.1394623346423907e+07  1.1447432209334094e+07  1.1481325557141541e+07  1.1509946843927320e+07  1.1552348326009240e+07  1.1594023735969234e+07  1.1633761142740106e+07  1.1671319131113483e+07  1.1706265035714164e+07  1.1713686990273638e+07  1.1732554129765177e+07  1.1755704425221136e+07  1.1772616123072088e+07  1.1780047655745666e+07  1.1781655360085696e+07  1.1783171984508222e+07  1.1782901596075391e+07  1.1785685982405420e+07  1.1791935785277495e+07  1.1791452076722804e+07  1.1791485699612457e+07  1.1793781126702223e+07  1.1787064795965416e+07  1.1762268269030012e+07  1.1729017209731892e+07  1.1697750881231718e+07  1.1641357662196243e+07  1.1538648199787306e+07  1.1510644663865052e+07  1.1581705442703024e+07  1.1607955441394815e+07  1.1615104148649866e+07  1.1622493326678090e+07  1.1634259431362951e+07  1.1650993012593469e+07  1.1711870821577620e+07  1.1731491872929445e+07  1.1740635782936487e+07  1.1742466374851976e+07  1.1732582227738721e+07  1.1702889910824291e+07  1.1667874012434958e+07  1.1618991992556980e+07  1.1606711713916061e+07  1.1607830435064105e+07  1.1611884617011437e+07  1.1613056125375900e+07  1.1610368867240727e+07  1.1608717360744843e+07  1.1606188220386688e+07  1.1595578308437206e+07  1.1567289285366086e+07  1.1522493350316050e+07  1.1507540321121076e+07  1.1533022137757480e+07  1.1545294733536422e+07  1.1549342044133147e+07  1.1546035813238043e+07  1.1547495013647025e+07  1.1544036288638761e+07  1.1543328449140143e+07  1.1538453390990300e+07  1.1536053949647473e+07  1.1530294568761254e+07  1.1482365533242742e+07  1.1427299725131677e+07  1.1347428821567146e+07  1.1259911952877730e+07  1.1141049734920347e+07  1.0980061061317559e+07  1.0785172338720696e+07  1.0588764237000968e+07  1.0424283153203594e+07  1.0315100334463580e+07  1.0244396883190306e+07  1.0299448593007358e+07  1.0408387342607053e+07  1.0650213678362945e+07  1.0800431332277974e+07  1.0858911531088440e+07  1.0909277052722760e+07  1.0964033787289497e+07  1.1001764750919217e+07  1.1027769586967340e+07  1.1033447891651049e+07  1.1033502704140607e+07  1.1024739575146524e+07  1.1000895843788024e+07  1.0992390086326815e+07  1.1010164764388073e+07  1.1021391015907262e+07  1.1024926250370316e+07  1.1024926099136051e+07  1.1013368187873134e+07  1.0937039174937434e+07  1.0910846537445791e+07  1.0864328846046591e+07  1.0835717832884828e+07  1.0794379810878182e+07  1.0748609329927266e+07  1.0696553867897859e+07  1.0658832231485454e+07  1.0645821586797114e+07  1.0650005706064329e+07  1.0654905686047429e+07  1.0654324508869730e+07  1.0656324633540740e+07  1.0657382703743314e+07  1.0657252276243180e+07  1.0648631905983936e+07  1.0617854874943519e+07  1.0524328207376545e+07  1.0318264269858740e+07  1.0158059606214115e+07  1.0063409219448445e+07  1.0021929764671650e+07  1.0006627297693130e+07  9.9532097673608065e+06  9.9178372414220180e+06  9.8907172595660873e+06  9.8808980975463372e+06  9.8494033790327553e+06  9.8206046724239103e+06  9.8353388438982479e+06  9.8150147715832852e+06  9.7776385371055286e+06  9.6998797493754290e+06  9.6080088727587871e+06  9.5387439859653395e+06  9.4767112230211757e+06  9.4537153486553263e+06  9.4529566328460686e+06  9.4610418115026187e+06  9.4678900165910050e+06  9.4869587153682504e+06  9.4990739884217307e+06  9.5003799789266251e+06  9.5016848065828383e+06  9.5104776179899368e+06  9.5199440024355389e+06  9.5422778668963797e+06  9.5675538103209343e+06  9.5853593345385604e+06  9.5891907405469883e+06  9.5954053766902611e+06  9.6242732901528422e+06  9.6293124636170436e+06  9.6281972611523848e+06  9.6301512228195798e+06  9.6284553870714065e+06  9.6242255578992814e+06  9.6148522876082417e+06  9.5981753026301283e+06  9.5717338373385873e+06  9.5465291137344893e+06  9.5316874199384619e+06  9.5361345310966447e+06  9.5546266094746795e+06  9.5863881233506259e+06  9.6343166409661938e+06  9.6861528348698933e+06  9.7623250843223464e+06  9.8684874911815319e+06  9.9421503142790236e+06  1.0230422060248666e+07  1.0597530478114666e+07  1.1673178586598400e+07  1.1777464327758346e+07  1.1791164185764633e+07  1.1546275041810485e+07  1.1739862220866689e+07  9.8306731576321553e+06  1.1519650874638429e+07  1.1548534765826818e+07  1.1014615241359953e+07  1.0998890809567116e+07  1.0655112242344150e+07  1.0657161666990146e+07  1.1686648908479325e+07  1.0230421784923393e+07  1.0229050571385721e+07  1.1658174952063976e+07  1.1686526803240588e+07  9.8306742369125988e+06  1.1510776905915307e+07  1.1548536941071872e+07  1.1616228731483730e+07  1.1650041473981394e+07  1.1546883438346544e+07  1.1654165847561413e+07  1.1546863279260144e+07  9.4662107732961401e+06  1.0458980088838203e+07  1.1170425340562182e+07  9.5665216166201029e+06  9.3426387747130748e+06  9.8150470235363487e+06  1.1115759891285693e+07  1.0061176179017572e+07  1.0537041534461251e+07  9.5765698818892017e+06  9.2246664939229507e+06  1.1119930522849362e+07  9.9223958212811798e+06  1.1540690364776848e+07  1.0548259553172966e+07  9.7927641337138675e+06  9.8105482462020125e+06  1.0900859444816286e+07  9.5330716451742612e+06  1.1388560035341948e+07  1.0180830858302675e+07  1.0798069015717285e+07  9.7872505248729624e+06  9.4934486702302042e+06  9.5004636621516589e+06  9.4532226879828759e+06  9.9830927709759790e+06  9.3214151756676380e+06  1.1440507434551151e+07  9.4421209317778982e+06  1.1252983135910802e+07  1.0376045960163148e+07  1.0880718706155639e+07  9.5212263265191652e+06  1.0875377123751985e+07  1.0063359029784568e+07  1.0617855893523218e+07  1.0719035272195959e+07  1.0179981251492854e+07  9.3388650138940141e+06  1.0045520340631986e+07  1.1389243172480805e+07  1.1162608422812549e+07  1.1697927510588702e+07  1.0888095297010010e+07  1.0921394625107719e+07  9.8325055378736630e+06  9.6529298019313719e+06  9.8222109612814635e+06  1.0233657937873606e+07  1.1346996223700423e+07  1.0500389898150958e+07  9.5067179418477621e+06  9.4277857189036086e+06  1.1520639767643036e+07  9.4432684829550777e+06  9.5476452844497785e+06  1.0882418790751882e+07  1.1286842854946397e+07  1.0725537953135779e+07  9.5738446727457605e+06  1.1557970532302199e+07  9.2511398825388420e+06  1.0132093370977733e+07  1.0335422608477477e+07  1.0337092858966686e+07  9.9993611886544600e+06  9.3624272703799810e+06  1.0002466846293079e+07  9.8738386023805402e+06  9.4177738962872159e+06  9.6665466366642714e+06  9.7053161617915072e+06  9.7484540603235904e+06  1.1656461180605458e+07  1.1379265314201005e+07  9.6300075918517262e+06  1.1578845749820745e+07  1.1128091937727686e+07  1.1030844901167355e+07  1.1421377815063037e+07  1.0603754656029936e+07  1.0071125875428203e+07  1.0691792567884460e+07  1.1060074668770174e+07  9.8936933657120392e+06  1.1324738456577454e+07  9.5909807166804131e+06  1.0421182349257613e+07  9.6020538385716211e+06  9.5574246161543392e+06  1.0608552042297350e+07  1.1297078144528311e+07  1.0258879681302611e+07  1.0847791203327369e+07  1.0216884706630386e+07  1.1074806927675046e+07  9.4398083240438569e+06  9.7359416596690379e+06  9.6629586145697478e+06  1.1398346786252860e+07  1.0594654992876681e+07  9.5690104813580569e+06  1.1457628667996908e+07  1.0249055907785699e+07  1.1523870360397575e+07  9.5678757750213910e+06  1.1660334854119526e+07  1.1653786942138106e+07  9.9544238042204250e+06  1.0207377857767874e+07  1.1656656767939685e+07  1.1706556812926903e+07  1.1487065905089993e+07  1.1519452768157613e+07  1.0981704397893906e+07  9.4751035912402831e+06  1.1435089766559191e+07  1.1297805695508165e+07  9.9971008216524422e+06  1.0202481698117089e+07  1.0112243878967857e+07  1.1694713327474052e+07  1.1652278824075796e+07  1.0405925964084694e+07  1.1591509438523374e+07  1.1596711744496617e+07  1.1625903074571885e+07  1.1710667480253968e+07  1.0190628271815537e+07  9.7760288530411385e+06  1.0988122016889557e+07  9.5204978651998583e+06  1.0163624054973099e+07  9.5332681738257091e+06  1.0932579878433108e+07  1.1770181011898609e+07  1.0816807235014124e+07  1.0999109943698334e+07  1.1495662442515953e+07  1.0338497216910250e+07  9.5795788512217309e+06  1.0991294531349130e+07  9.4154453182615023e+06  9.8862371956468299e+06  1.1516728054888569e+07  1.1473605718400137e+07  1.0623076707297027e+07  1.1770157814025365e+07  9.5538503241079431e+06  1.1553817656203657e+07  1.0708833853128145e+07  9.6190271470174268e+06  9.4774746761333756e+06  9.4228586231160928e+06  1.1064243184325049e+07  1.1487813170746915e+07  1.1445183817645486e+07  1.0909664758183461e+07  1.1680660051245024e+07  1.0528318346713876e+07  9.8246940144012328e+06  9.8248049732770137e+06  9.5535760463930368e+06  1.1656226389936659e+07  1.1665879081644541e+07  1.1669774720692312e+07  1.1282280335758392e+07  1.1447911385112775e+07  1.1675911044126825e+07  1.1611965067700949e+07  1.0844460219862428e+07  1.1789716707386276e+07  1.1788044272913063e+07  1.0476747878574416e+07  9.5261983381824978e+06  1.0639716400826575e+07  1.1512554751884630e+07  1.0329929790713202e+07  1.0720674863106679e+07  1.1775692218159096e+07  1.0532929102888608e+07  1.1123845087913368e+07  9.7681811501776669e+06  1.0009126152136618e+07  9.9782315501114056e+06  1.0041409833435517e+07  1.1535599164086696e+07  1.0200684404898457e+07  1.0221083288546372e+07  1.0177735425917473e+07  1.0216825257230351e+07  1.0135988580329280e+07  9.6195488406967353e+06  9.5945901357011162e+06  1.0214514576678056e+07  9.9550042364163734e+06  1.1031721391372046e+07  1.1031173007483751e+07  1.1783888536325019e+07  1.0635879415637810e+07  1.0424604272240138e+07  1.0152892998984845e+07  1.0173972177154152e+07  1.0228239820679573e+07  1.0350982196903475e+07  1.0246743851445243e+07  1.0327469237395080e+07  1.0537365865940781e+07  1.0364420532070184e+07  1.0465949909487797e+07  1.0671247298094884e+07  1.0564893651701855e+07  1.0165039242569141e+07  1.0347512079977043e+07  9.6516471195797957e+06  9.6910329682053775e+06  9.6331017000269834e+06  9.5742280342911873e+06  9.5876899822475053e+06  9.5050668450525030e+06  9.5516611458612382e+06  9.5176722699675951e+06  9.4413370928661823e+06  9.4437458907506727e+06  9.5512217344437055e+06  9.5378077979581784e+06  9.5388676665232722e+06  9.5293817419841308e+06  9.5306295588809755e+06  9.5440541212906782e+06  9.5365452307674792e+06  9.5250333019374665e+06  9.5708307600183394e+06  9.5449527106237821e+06  9.5796486702130958e+06  9.5594584562875144e+06  9.6101141092620604e+06  9.6875612411466874e+06  9.6375010690554138e+06  9.4270359219130725e+06  9.3871807518073507e+06  9.4179079041981548e+06  9.5195014534463603e+06  1.0618461937153753e+07  1.0530576318999136e+07  1.0400875510948779e+07  1.0522872249737592e+07  1.1033434162113205e+07  1.1283382038347458e+07  1.1097742093938932e+07  1.1244021806990577e+07  9.6863752667472456e+06  9.4973409090934824e+06  9.5362153059266005e+06  9.6251341996702738e+06  9.4181350940937418e+06  9.3072851011759266e+06  9.3763416870152261e+06  9.3701595102375709e+06  9.2932178838494793e+06  9.3874079449424148e+06  1.0006076949751873e+07  1.0029653795406628e+07  9.6625076754369941e+06  9.8232308724521883e+06  9.7518863326795734e+06  1.1188854219758613e+07  1.1003754966212533e+07  1.0043085307985168e+07  1.0038396530287040e+07  1.0164768150307098e+07  9.9766627956930287e+06  1.0148934228558119e+07  1.0108425277966101e+07  1.0365133489506530e+07  1.0571502404950636e+07  1.0472204315218538e+07  9.5294747499866355e+06  9.6214663060560990e+06  9.6972884827258475e+06  9.4975719447477721e+06  9.3140252269372530e+06  9.2320302394107319e+06  9.3524149333251640e+06  9.2457100524653867e+06  9.2068424945895169e+06  9.2732496632817648e+06  9.3124697528777421e+06  1.0941420750883566e+07  1.1250732133545203e+07  1.1057623719363522e+07  1.1289385459331658e+07  1.1472707542472873e+07  1.0732845830515424e+07  1.0393892259926552e+07  1.0696851094071299e+07  1.0559682006627884e+07  9.6841377267834991e+06  9.8169223236352466e+06  9.8411651441508289e+06  9.6900229463390447e+06  1.1031068450848391e+07  1.0882612931674540e+07  1.0911317996267285e+07  1.0787245695562752e+07  9.4843991899712458e+06  9.5164224437422752e+06  1.0117551802300660e+07  1.0193319574832128e+07  1.0027419330622531e+07  1.0812350633797973e+07  1.0694127519763639e+07  1.0916908058342272e+07  1.0689844766290836e+07  9.8804327974557299e+06  9.7176158543150257e+06  9.6658428545089308e+06  9.7537859221487418e+06  9.7817372914090808e+06  9.8577706665475331e+06  9.5601656575074475e+06  9.4820726157055981e+06  9.4631879749131072e+06  9.4470928622806109e+06  9.5303522200880125e+06  9.5164967054483518e+06  9.4665390464628208e+06  9.4872209146688748e+06  9.6046029059317578e+06  9.4592692448911890e+06  9.3468500382660180e+06  9.4111611609998159e+06  9.5589001810550541e+06  9.5052620381210651e+06  9.4135699555803053e+06  9.5046029752661865e+06  9.8824572542802729e+06  1.0173689329991512e+07  9.9850246922006253e+06  9.8479837364306934e+06  9.3729330174119379e+06  9.3959158079883754e+06  9.2423101076561548e+06  9.3167260962383691e+06  9.3876990906678531e+06  9.4996673883525115e+06  9.3506283240876161e+06  9.4311047824058738e+06  9.4606042378715407e+06  9.4871100474979244e+06  9.4289753999142367e+06  1.0296257200724730e+07  1.0284371916555459e+07  1.0474345918853544e+07  1.0508873204499107e+07  1.0859667340011677e+07  9.4348641263706703e+06  9.4599749149569329e+06  1.0740752575493610e+07  1.0189887163004428e+07  9.9825474832170699e+06  9.9458331240990739e+06  1.0152262725086672e+07  1.0741507865593983e+07  1.0652877551452430e+07  1.0654924412618471e+07  1.0634294115567409e+07  1.0197501238212809e+07  9.9660467488453966e+06  9.2850573362791128e+06  9.3755175346746109e+06  9.3849522431769557e+06  9.9649814683704302e+06  1.0121942303891052e+07  1.1206078010792412e+07  1.1350480432863403e+07  1.1030326320393194e+07  1.1273720919889249e+07  1.1106114263127323e+07  1.0961268051148055e+07  1.0768933437480824e+07  1.0809285487152169e+07  9.7433398983212244e+06  9.6086412340299394e+06  1.0028553368805872e+07  1.0330017551696267e+07  9.4775090934235752e+06  9.5066636346578710e+06  9.5187498945365213e+06  9.4434154540165253e+06  9.5504470686606094e+06  9.7179486561814789e+06  9.5850971249294542e+06  9.5673124836215172e+06  9.9769424065578040e+06  1.0257777005727382e+07  1.0334974261864066e+07  1.0402980369032864e+07  1.0432154603603482e+07  1.0295186460517723e+07  1.0276101761722598e+07  9.8742437432490513e+06  9.4988978166113459e+06  9.4717837248716131e+06  9.5309651320211608e+06  9.6125358812535964e+06  9.6092465915703252e+06  9.7194192105255816e+06  9.7695678267539442e+06  9.6153742585573252e+06  1.1178161799272787e+07  9.7592870048854537e+06  9.6238510023203567e+06  1.0201694394242095e+07  1.0404677629796568e+07  1.0725051820014302e+07  1.0609801369037544e+07  9.5484448454677463e+06  9.5462327943875268e+06  9.4487979786325898e+06  1.0261174769807804e+07  9.5172231591677964e+06  1.0434890889323926e+07  9.4668129781245925e+06  9.4121497565545756e+06  1.0498790603074839e+07  9.4569749538750947e+06  1.0570388109306090e+07  9.3772310136509687e+06  9.3201069813292474e+06  9.3498039645047132e+06  9.3176030688973945e+06  9.3761509446692765e+06  1.0120833201999109e+07  9.2597125149311684e+06  9.2759024370343443e+06  9.2624468673877064e+06  1.1151990845229905e+07  9.9250786494038925e+06  9.7411785074912682e+06  9.7417061858805045e+06  9.7717324966701828e+06  9.4840264029766545e+06  1.0704691943350703e+07  1.0737052250952730e+07  9.5077898338510990e+06  9.5226591752808355e+06  9.4462316516062077e+06  9.4546741604000293e+06  9.3943229232166000e+06  9.8551637539601848e+06  1.0044095744444521e+07  1.0122699848611640e+07  9.9912217593677193e+06  1.0165568446361717e+07  9.3289262514254693e+06  9.3614866841301806e+06  9.3563748426281139e+06  9.3628080306369942e+06  1.0825239277520996e+07  9.3971167802501377e+06  9.4012237307406906e+06  9.4357715454719663e+06  9.6097720787104238e+06  9.6258162889289036e+06  9.6422602376411837e+06  9.5576860688129924e+06  9.2241383219377901e+06  9.2991696210241839e+06  9.2644407265684940e+06  9.6550298833100200e+06  1.0980532731851995e+07  1.1038852516393954e+07  1.1113667156139230e+07  1.0567735826121436e+07  1.0724468486208629e+07  9.6786303294932507e+06  9.5413350860637054e+06  9.5080213224544618e+06  9.5859267101615276e+06  1.0325759242593432e+07  1.0155179591782525e+07  1.0203616845149197e+07  9.4148013068726063e+06  9.4132079959187619e+06  9.4309998343018666e+06  9.7411015996671375e+06  9.7875285060103461e+06  9.7242269276564270e+06  9.6735369017458428e+06  1.0495927340923231e+07  9.5245385898950398e+06  9.5148072879882269e+06  9.5217376737608090e+06  1.0399969089952193e+07  1.0383627278316811e+07  1.0386306589592841e+07  9.4837463420484886e+06  9.5302516987536885e+06  9.5813170528456438e+06  9.4056396839779038e+06  9.5243390487168338e+06  9.5152655559799913e+06  1.0497418436023571e+07  1.0596712607581956e+07  1.0542096735224230e+07  1.0482099097528152e+07  1.0484112782575650e+07  1.0513299689508295e+07  1.0448717913781377e+07  9.6237993366823327e+06  9.5212845822199341e+06  9.4387237286874913e+06  1.0650534470328994e+07  9.5752720316166468e+06  9.5743224523388613e+06  9.3947273011715170e+06  9.2894772314393949e+06  9.4183485131388530e+06  9.3684392542160582e+06  9.2597447400767654e+06  9.3145851511815619e+06  9.6878433568296451e+06  9.6136531778900828e+06  9.6615613959782049e+06  1.0104608476838062e+07  1.0151357671847545e+07  9.5455479537187163e+06  9.5899665152126215e+06  9.2605725760449264e+06  9.3210497574030366e+06  9.3271493778815512e+06  9.2875301404446848e+06  9.2125409123816416e+06  9.2380671912355702e+06  9.3823369863178395e+06  1.1127989452323353e+07  9.6957601370403580e+06  9.7686370352717303e+06  9.7254277391030490e+06  1.0828149855178395e+07  1.0823448210772688e+07  1.0773375877746321e+07  9.7049916711475383e+06  9.8095354216746148e+06  9.6857643835796677e+06  9.5575595513207074e+06  9.7861686344541833e+06  9.8565740174105428e+06  9.3388154228656553e+06  9.3845690391841251e+06  1.0379503493033551e+07  1.0346804208699796e+07  1.0434462918224523e+07  9.3785191905771308e+06  9.5120322702402920e+06  </DataArray> 
</PointData> 
</Piece>
</UnstructuredGrid>
</VTKFile>