<?xml version="1.0"?>
<VTKFile type="UnstructuredGrid"  version="0.1"  >
<UnstructuredGrid>
<Piece  NumberOfPoints="784" NumberOfCells="1320">
<Points>
<DataArray  type="Float64"  NumberOfComponents="3"  format="ascii">266913.131276 586512.314988 0  266738.13716 587762.325998 0  266363.132677 589012.328643 0  266175.641078 590169.601714 0  265666.575631 591040.7699119999 0  264875.64001 591687.766419 0  264900.636161 591845.049083 0  266088.14152 592012.3229499999 0  265561.959259 592661.17101 0  264288.136855 593037.368683 0  263865.194033 593999.8486949999 0  263850.641856 593236.729596 0  263625.634872 592756.525286 0  262689.574249 593299.848918 0  262475.636737 594003.0907310001 0  261934.554452 594340.929792 0  261725.631329 594932.094409 0  261729.256443 595728.498809 0  262138.136044 595012.330523 0  262288.141035 596262.333669 0  261488.994028 597511.480605 0  261234.15567 598316.338928 0  260815.635063 599014.863821 0  261400.643658 599389.7367680001 0  261322.963374 600022.185065 0  261119.455248 600931.061306 0  261607.436504 601293.0629359999 0  260807.446929 602089.899812 0  260025.642878 602988.868697 0  259613.135827 603937.3854499999 0  259050.643123 604100.987861 0  258411.880065 603988.6335979999 0  257764.357469 604449.872569 0  257971.239668 605320.429125 0  258041.396867 605740.635381 0  257188.143339 606987.394312 0  256038.141198 608112.3554550001 0  254788.141633 609087.4026939999 0  253588.140656 609812.362881 0  252338.135706 609737.4048949999 0  251088.138116 609787.404055 0  249963.12851 610287.399466 0  248613.130524 610462.365857 0  247363.132198 610687.407659 0  246113.130532 610837.411551 0  245832.347438 610918.209918 0  245016.946433 610958.5639439999 0  244313.129646 610762.372259 0  244400.622144 611378.093316 0  243939.669208 612460.8930899999 0  242960.649733 611984.892792 0  242170.381438 611919.647351 0  241888.122919 611112.375656 0  241393.380757 610467.6456149999 0  240594.157528 611306.369822 0  240525.621947 610804.648112 0  240363.123632 610512.3745050001 0  239113.123247 610262.374278 0  239813.12126 609037.412459 0  240588.122952 607812.368199 0  241013.119545 606625.9534560001 0  241454.373249 605724.888025 0  242238.120107 604687.3993 0  243088.121248 603462.362766 0  242860.319451 603007.3932640001 0  241563.116617 603812.361344 0  241778.400913 604327.642217 0  242059.837234 604824.879102 0  241475.620201 604923.2402390001 0  241462.182234 605449.881372 0  240906.219606 605674.888222 0  240241.856192 606891.125066 0  239891.734044 607841.012479 0  239048.653431 608724.889805 0  238118.054545 608974.895967 0  238888.111029 607337.406468 0  239738.119992 606212.362729 0  240288.12044 605687.4075229999 0  240380.212307 604729.521696 0  239347.309632 604603.204501 0  238888.112036 604387.408787 0  237913.11173 604687.401386 0  236784.172023 604499.882783 0  236883.408793 603717.08334 0  236154.933927 603595.565605 0  235688.103943 602912.369264 0  235763.108033 601662.366516 0  236363.110805 600412.35884 0  236738.107995 599162.356577 0  236525.607944 598482.2412899999 0  236138.109208 599362.357613 0  235725.063048 600325.4466510001 0  235091.948926 601408.5220979999 0  235188.10921 600312.366344 0  234375.602405 600833.9674270001 0  234663.109308 599912.358011 0  234138.105122 600062.365644 0  233955.307245 599029.561063 0  233338.103791 598387.401556 0  233988.09795 597862.356384 0  235138.101489 596637.3947750001 0  235563.1039 595387.392428 0  236513.103639 594212.356312 0  237163.10684 592987.3929869999 0  238313.103031 591862.3515540001 0  239513.107028 590812.3512640001 0  240638.102135 589787.387271 0  241463.109549 588587.378486 0  242294.489816 587443.735215 0  242913.101099 586512.341804 0  243544.066915 585474.859604 0  243040.448415 585184.975583 0  242438.10214 585337.38015 0  241313.102353 586562.339499 0  240538.107104 587787.382449 0  240114.641085 588588.939407 0  239388.100256 589437.382238 0  238188.104456 590512.346358 0  236938.100507 591362.349798 0  235813.10453 592537.396388 0  234864.502938 593178.7753880001 0  234463.097651 592862.357267 0  235113.0965 591662.3545979999 0  235713.101522 590412.346099 0  235777.688431 589976.7582779999 0  234943.583145 590706.265132 0  234462.482256 591490.2841159999 0  233801.497784 592112.940187 0  233388.099101 591787.394208 0  234013.093099 590437.393065 0  234776.217248 587148.7548100001 0  235163.093726 586562.3486189999 0  235313.098918 585483.229012 0  235250.59732 584662.298153 0  235588.093896 583337.379493 0  236329.432041 582199.858992 0  237188.096234 581462.3349939999 0  237463.088521 580212.335511 0  238350.592558 579057.652616 0  238591.415797 578574.847681 0  238313.094106 577612.328905 0  239229.696732 577695.769664 0  240195.161018 577513.008613 0  240614.996733 577149.8518770001 0  240663.091715 577412.332622 0  240288.092486 578662.334085 0  239942.357258 579508.095811 0  240438.100019 580212.3334220001 0  241338.095553 580387.375355 0  241238.099828 579137.369157 0  241788.097003 577887.370889 0  241983.554649 577241.9220939999 0  242054.178239 576927.8105029999 0  242588.100699 575737.366175 0  243149.324833 574898.583978 0  243695.278626 573919.517981 0  244268.494418 573724.8454239999 0  244995.134063 573930.2767810001 0  245417.314363 573391.601898 0  243450.599125 571859.479773 0  245776.797908 572599.8353060001 0  246779.639852 572973.285167 0  248034.741935 573186.082054 0  249413.10651 573162.3205520001 0  250496.922226 573271.1521899999 0  251613.105126 573237.3551319999 0  252421.824577 572846.032906 0  253256.245022 572580.4733130001 0  253739.471933 571960.9547369999 0  254174.511864 572149.8346569999 0  254484.944333 571684.194807 0  254384.108649 570891.346712 0  254344.002752 570218.26407 0  255025.609604 570829.0294979999 0  255715.005913 570489.264586 0  256218.846343 570774.828355 0  256834.349083 570508.5908 0  257390.092515 570014.308325 0  257624.431042 568493.478911 0  259355.811717 569380.021819 0  260033.372814 569617.066669 0  262679.741751 570320.699974 0  263289.115756 569524.817815 0  263463.114338 570512.301061 0  264638.198419 570687.3443539999 0  265058.220065 571334.378467 0  265447.561421 572077.90485 0  265488.125257 573137.3446020001 0  265131.937715 573963.293593 0  265432.389648 575093.068786 0  265638.122314 576338.029955 0  265750.630817 577371.8281319999 0  265738.570663 578561.9098850001 0  265875.630866 579139.630549 0  266213.129247 579862.311842 0  266563.130472 581112.314509 0  266238.135356 582362.310259 0  265938.12863 583612.320897 0  265738.131342 584762.3210189999 0  266875.638633 585365.358768 0  264018.7239399826 593650.4646671159 0  262236.3944351029 595831.1252656333 0  241846.246678 605206.1436625 0  240200.622106 608424.8903290001 0  240943.4862974102 610939.7757535663 0  236550.6094 599787.3577085 0  238528.1212051503 608102.9081793013 0  244413.4891967989 572609.5960859474 0  236382.0474488751 598808.3067022427 0  235369.601910944 600933.5380148316 0  235413.099011 591037.3503485 0  235446.2251831186 590266.6553871984 0  240475.5921005 578037.3333535 0  240413.173949154 577324.4280286073 0  240574.037899 606283.0066440001 0  263857.9179445 593618.2891454998 0  264153.4303974913 593343.916675058 0  242042.1833925 604946.7714812499 0  241650.3099635 605465.51584375 0  244613.6985165 572229.6575395 0  236631.8579695 598822.2989335 0  235140.029068 600860.444221 0  241767.7287175 604874.0596705 0  242140.15174975 604817.0853906251 0  234781.8558075 600573.1668855001 0  242091.167571125 604881.9284359375 0  234519.3558565 600373.162719 0  254604.8337712102 583989.0014118921 0  250699.5846056537 594617.3297041012 0  250540.4796469513 602258.2940568649 0  248483.7490186612 580334.7345534252 0  258549.2190328319 577893.951823392 0  257067.0067473103 590016.5327808241 0  243285.0921999099 596333.923437875 0  248333.1386145258 589098.0389905117 0  256142.8445072741 595883.3911551933 0  260245.1368072523 583315.2785712298 0  253472.3380211276 578932.2908163272 0  246432.3347504817 599884.5019511909 0  261555.9240922556 588041.186709004 0  247293.1100123104 605823.8307887657 0  246458.2798550911 593168.8646574575 0  252840.0183145193 588226.5564648228 0  249828.2874404451 584740.7888937403 0  255409.5660975206 600458.8956828594 0  260819.9733392385 574219.403683011 0  252584.2262054711 605722.6603825617 0  254049.8830611471 592547.4852571967 0  250015.4356193061 598425.2225922942 0  245872.072249477 577604.9761853142 0  262002.1583249522 579753.4663046852 0  257732.6630933878 586227.970805314 0  250242.5556457866 577017.3316409125 0  244921.6453001869 581816.6358421432 0  256520.3890639471 580904.824006648 0  240779.0970645865 599524.6679555867 0  257100.1829219198 574459.5922545703 0  239912.2630002034 595231.1172704464 0  244703.0875078634 590068.6945953515 0  242549.5490268674 592874.3693043783 0  251586.0465921376 581796.2215047925 0  246643.189997516 596527.447801719 0  251049.7658069622 591057.6752245198 0  253014.5731561695 596998.6601086652 0  238680.2197353724 584542.2309791476 0  259715.365803504 591937.1938619445 0  254097.157218761 575731.4494927844 0  246806.6408589328 586139.0877599345 0  246136.1179750556 602959.471719323 0  253520.7033332401 602835.180253843 0  244125.4295793909 607538.9817227355 0  252546.8895354472 599881.3279113505 0  258289.0983523553 600397.640191779 0  247518.7952199645 583037.3718217331 0  263140.3959879661 582529.2228421422 0  262894.8586894067 585442.3590432997 0  256968.6320599076 593040.7691844478 0  243573.0187527719 600218.2795730785 0  258888.5766127351 595139.7745218446 0  262588.7569809347 576734.8569237856 0  259318.4257992262 580601.2540325444 0  249963.3812725965 607065.7205847671 0  257494.5307999607 583482.5893534871 0  258906.4757205145 572278.8089438241 0  237751.446593475 587300.5805003279 0  255142.4708720699 604956.7580261135 0  258485.4978753244 597756.9250383095 0  255516.7820591553 587791.39641967 0  239758.4692108706 601926.8203218657 0  255873.0092222999 577739.5085867504
[...]
<PointData  Scalars="f_32-0"> 
<DataArray  type="Float64"  Name="f_32-0"  format="ascii">1.6321937164188677e+07  1.6369945926318366e+07  1.6425664876051459e+07  1.6470151195223058e+07  1.6499675986184608e+07  1.6542400489923671e+07  1.6556981558748424e+07  1.6569125913427273e+07  1.6568952155478582e+07  1.6576865672545049e+07  1.6581619610953830e+07  1.6580356999583784e+07  1.6587038199023945e+07  1.6656677961427324e+07  1.6708024315623913e+07  1.6757794022681560e+07  1.6830847746348038e+07  1.6918920759817652e+07  1.6930585708234757e+07  1.6944029472832397e+07  1.7017604765057132e+07  1.7078416076859646e+07  1.7150782994962648e+07  1.7191392585131578e+07  1.7210984075070921e+07  1.7253791516642958e+07  1.7266370527881052e+07  1.7288367300506886e+07  1.7333285647128806e+07  1.7364781842616305e+07  1.7374559377285510e+07  1.7402253659362637e+07  1.7473159234598931e+07  1.7532424065806631e+07  1.7543329756990574e+07  1.7590511204000417e+07  1.7642766408060722e+07  1.7689095601376902e+07  1.7719050024518117e+07  1.7744429199974760e+07  1.7782537327703159e+07  1.7820436245768715e+07  1.7857058153369959e+07  1.7892091469748423e+07  1.7925042768196162e+07  1.7932081013707343e+07  1.7950032969581261e+07  1.7972186787728377e+07  1.7988473908530056e+07  1.7995651944775067e+07  1.7997182872483965e+07  1.7998628224797200e+07  1.7998314593084041e+07  1.8000918405700140e+07  1.8006958543327156e+07  1.8006485104427677e+07  1.8006506683628045e+07  1.8008724447606415e+07  1.8002168698066257e+07  1.7978033849639755e+07  1.7945832834810883e+07  1.7915751194392763e+07  1.7862103358397279e+07  1.7766823329650622e+07  1.7743267996167146e+07  1.7815009465871301e+07  1.7840597741318457e+07  1.7847524501304749e+07  1.7854702783725500e+07  1.7866077158459883e+07  1.7882186769142039e+07  1.7940766174638536e+07  1.7959685931981407e+07  1.7968526599838126e+07  1.7970299836902726e+07  1.7960740459062628e+07  1.7932115356833089e+07  1.7898425939534944e+07  1.7851731285224877e+07  1.7840961923832458e+07  1.7842596895664923e+07  1.7847244914140519e+07  1.7848678205738246e+07  1.7846374579166852e+07  1.7845127571211766e+07  1.7842900022256132e+07  1.7833139270981014e+07  1.7806966769986931e+07  1.7766164166843936e+07  1.7754110606713794e+07  1.7779770617060874e+07  1.7791804974098541e+07  1.7795742073020939e+07  1.7792539848878536e+07  1.7793980162877657e+07  1.7790639435601167e+07  1.7789982644993518e+07  1.7785315844196487e+07  1.7783038531791050e+07  1.7777484563414391e+07  1.7731584844302330e+07  1.7679405512657259e+07  1.7604014682217326e+07  1.7521630086569473e+07  1.7410508800975531e+07  1.7262885176021032e+07  1.7087391762235932e+07  1.6913156530187704e+07  1.6762132757083783e+07  1.6651712191558072e+07  1.6546795904088156e+07  1.6558397826143142e+07  1.6626472518479699e+07  1.6772747958500497e+07  1.6859949683561854e+07  1.6897124786361188e+07  1.6932163001579106e+07  1.6973980267664060e+07  1.7005060268750984e+07  1.7027464543315578e+07  1.7032470889945801e+07  1.7032519835041802e+07  1.7024808653057840e+07  1.7004197221303489e+07  1.6996865951842271e+07  1.7011942463210464e+07  1.7021698416942913e+07  1.7024798780779511e+07  1.7024801524161495e+07  1.7014707198978819e+07  1.6950188277930006e+07  1.6928663266062453e+07  1.6890184917358320e+07  1.6866530176334020e+07  1.6832766756615829e+07  1.6795801790202990e+07  1.6753584397790207e+07  1.6719808632442730e+07  1.6705640252734100e+07  1.6706945702915033e+07  1.6709489891090121e+07  1.6709003469390128e+07  1.6709980426338442e+07  1.6710595717688760e+07  1.6710519260429751e+07  1.6705266050631134e+07  1.6685870803282468e+07  1.6621834913703557e+07  1.6463679382150255e+07  1.6315831911863254e+07  1.6219753824850984e+07  1.6173861362226589e+07  1.6156136717427963e+07  1.6092174539730439e+07  1.6048489252900256e+07  1.6014182458974775e+07  1.6003442778982555e+07  1.5969820780496489e+07  1.5929910353844170e+07  1.5923642608922694e+07  1.5918554379726581e+07  1.5891453213283541e+07  1.5824228889693160e+07  1.5744845906674230e+07  1.5692736120524503e+07  1.5653428072006373e+07  1.5643000599212481e+07  1.5650909691238860e+07  1.5662997179990711e+07  1.5673132878755102e+07  1.5696453493010933e+07  1.5709003523259176e+07  1.5709862344507759e+07  1.5713734198495906e+07  1.5727412387218744e+07  1.5742380650236705e+07  1.5774303555589922e+07  1.5807418867787255e+07  1.5829158906068815e+07  1.5838875784677569e+07  1.5851025295469604e+07  1.5900026780509241e+07  1.5906444000376292e+07  1.5906808672349278e+07  1.5912133556880828e+07  1.5911723778690705e+07  1.5909491368412921e+07  1.5903552719368421e+07  1.5893381957519447e+07  1.5880703163659479e+07  1.5874653510368798e+07  1.5877071535964958e+07  1.5894619055576492e+07  1.5912738916249607e+07  1.5938842379429007e+07  1.5979004104340347e+07  1.6029222411710527e+07  1.6107231230240960e+07  1.6215541423851131e+07  1.6287386777187193e+07  1.6581265543147676e+07  1.6934488309563369e+07  1.7892276845082425e+07  1.7992812670556825e+07  1.8006209160174809e+07  1.7787657814012531e+07  1.7967778168352734e+07  1.5923103182373129e+07  1.7766511359582417e+07  1.7794958284363616e+07  1.7016005494547173e+07  1.7002281177522451e+07  1.6709240002188666e+07  1.6710466253853096e+07  1.7916483209171019e+07  1.6581261774411082e+07  1.6580311623885753e+07  1.7878018444306124e+07  1.7905009367649999e+07  1.5923105148086006e+07  1.7755942987899084e+07  1.7794960318046164e+07  1.7848621764102399e+07  1.7870312409189876e+07  1.7793384399368029e+07  1.7874217957684182e+07  1.7793365246885244e+07  1.5961786874037484e+07  1.6835390443565875e+07  1.7443881510396972e+07  1.5995331283285584e+07  1.5717920660450885e+07  1.6368927754732838e+07  1.7386634900373295e+07  1.6495145066554846e+07  1.6920138687381789e+07  1.5999369200626513e+07  1.5700516857765870e+07  1.7388468359800559e+07  1.6344651641163427e+07  1.7767686729778003e+07  1.6930390786049671e+07  1.6239679143020263e+07  1.6180897551729007e+07  1.7271062600947592e+07  1.5828646905147577e+07  1.7636253699591894e+07  1.6611552689227596e+07  1.7136670734694991e+07  1.6029960228417210e+07  1.5866412566068165e+07  1.6087650188538494e+07  1.5739678901779428e+07  1.6293233313148517e+07  1.5799564532503767e+07  1.7684009380723778e+07  1.5706222911270546e+07  1.7514375297129158e+07  1.6802221927324343e+07  1.7189838561494038e+07  1.5932946236559037e+07  1.7177031324388724e+07  1.6497760569199473e+07  1.7002411520936184e+07  1.6795425105438624e+07  1.6601773020759746e+07  1.5617911972103132e+07  1.6416297227795141e+07  1.7627913250522301e+07  1.7454316692815866e+07  1.7916100834705230e+07  1.7239659590853889e+07  1.7245972670586828e+07  1.6202861971495062e+07  1.6017197359164232e+07  1.6201677720581448e+07  1.6668549138373805e+07  1.7591810184766926e+07  1.6866643956939947e+07  1.5845348757180072e+07  1.5834456259756664e+07  1.7751854881533142e+07  1.5942854011519337e+07  1.5803785806903811e+07  1.6910509334977146e+07  1.7551585391248543e+07  1.7069895497708283e+07  1.6139305131927619e+07  1.7794871513205573e+07  1.5642966892399546e+07  1.6520525490579490e+07  1.6537669496431140e+07  1.6731012845299078e+07  1.6222474513453288e+07  1.5846434147958703e+07  1.6364891068394296e+07  1.6360302202870278e+07  1.5823670894018795e+07  1.5855641196456820e+07  1.6160772915045228e+07  1.6292960637337646e+07  1.7877257408474430e+07  1.7623931068039592e+07  1.6044609882860383e+07  1.7802773210654221e+07  1.7394258147594277e+07  1.7318471469119672e+07  1.7670440454576224e+07  1.6698758871989081e+07  1.6385578014023125e+07  1.7091909995076831e+07  1.7369346384610835e+07  1.6295547573266802e+07  1.7571681586779930e+07  1.6079047700387605e+07  1.6810701622032631e+07  1.5884868913135078e+07  1.5903057201014247e+07  1.6956118759041470e+07  1.7552303767540582e+07  1.6712520353674140e+07  1.7165280129567273e+07  1.6615541692779806e+07  1.7351103509676270e+07  1.5787741700618042e+07  1.6108849198157977e+07  1.6051391202233605e+07  1.7651211842764221e+07  1.6982374646971125e+07  1.5930349138400581e+07  1.7697673579730086e+07  1.6655407803093690e+07  1.7765144653631523e+07  1.5870412458027499e+07  1.7879992511677284e+07  1.7873813398632884e+07  1.6128868400307525e+07  1.6562004631107191e+07  1.7876568041828007e+07  1.7925044608413771e+07  1.7732545763234094e+07  1.7766855604637202e+07  1.6987590634371147e+07  1.5701397472255647e+07  1.7670414109472554e+07  1.7559653064639643e+07  1.6153158930621844e+07  1.6554403004285224e+07  1.6473350701779576e+07  1.7912836209053867e+07  1.7872427317260291e+07  1.6775735975377651e+07  1.7826355988813054e+07  1.7820238434703294e+07  1.7847505052946679e+07  1.7929147958706260e+07  1.6466295283049198e+07  1.5912144631871967e+07  1.6993571688510343e+07  1.5755505806000605e+07  1.6520561291007342e+07  1.5897909060940567e+07  1.6947276450275786e+07  1.7985795008722819e+07  1.6855284100678805e+07  1.7002407367923401e+07  1.7741623768042568e+07  1.6569395855059536e+07  1.5831848461703608e+07  1.6995771121405765e+07  1.5630516494363898e+07  1.6015560354781495e+07  1.7763911925312739e+07  1.7722695157013148e+07  1.6695425369414503e+07  1.7985928388616633e+07  1.5727956016045094e+07  1.7794062264423843e+07  1.7041539291977596e+07  1.5903876412678657e+07  1.5691267988469185e+07  1.5648818135598015e+07  1.7358687570167657e+07  1.7719778575184848e+07  1.7682437366381675e+07  1.7222390209645070e+07  1.7899403190900967e+07  1.6878652757013794e+07  1.5922717056658341e+07  1.5922404097868826e+07  1.5794164053984838e+07  1.7876169893819176e+07  1.7885332802464131e+07  1.7889033888435721e+07  1.7546189028856039e+07  1.7696878121510733e+07  1.7896150373849019e+07  1.7836193128067791e+07  1.6886677342588082e+07  1.8004799352747172e+07  1.8003139869642589e+07  1.6603018766694132e+07  1.5867565882279955e+07  1.6700604648070941e+07  1.7741175861609410e+07  1.6696679276739776e+07  1.6780378976463854e+07  1.7991416462270387e+07  1.6687197536443630e+07  1.7414425144881558e+07  1.6122673430290354e+07  1.6160944707129184e+07  1.6122619244588420e+07  1.6201284462003404e+07  1.7782408316150106e+07  1.6551630093613928e+07  1.6570068943816883e+07  1.6530577833823347e+07  1.6566883048865404e+07  1.6487649932149939e+07  1.5898068134530222e+07  1.5863764375719937e+07  1.6582937352285786e+07  1.6101280093207259e+07  1.7030943495757136e+07  1.7030459503412906e+07  1.7999126369792048e+07  1.6974658701357309e+07  1.6790357188413355e+07  1.6490488083182445e+07  1.6473912692672227e+07  1.6509334135169500e+07  1.6589591459488418e+07  1.6517952727614272e+07  1.6570207918219503e+07  1.6707377051539589e+07  1.6595395912905166e+07  1.6659781897535229e+07  1.6780980546749774e+07  1.6721964262470609e+07  1.6376021554140585e+07  1.6511695049230419e+07  1.5781686817557452e+07  1.5830722070459265e+07  1.5772172954018662e+07  1.5718353482344279e+07  1.5734099204599401e+07  1.5670291226613436e+07  1.5707042983319052e+07  1.5682971532616599e+07  1.5639869297019366e+07  1.5650727109499492e+07  1.5873818376987483e+07  1.5874835832569443e+07  1.5872705318853488e+07  1.5882935106892489e+07  1.5873925927059526e+07  1.5903088694452493e+07  1.5897789564455168e+07  1.5878129054682160e+07  1.5926300148457356e+07  1.5905819873498470e+07  1.5935720915368697e+07  1.5918070854111951e+07  1.5960734085605100e+07  1.6036407944536852e+07  1.5985727430422600e+07  1.5995744508487901e+07  1.5880072306372331e+07  1.5938066093207713e+07  1.6018075470072281e+07  1.6985704736151788e+07  1.6909904804917227e+07  1.6780448621530123e+07  1.6886764395828232e+07  1.7339820819502439e+07  1.7540059033688042e+07  1.7378337917395104e+07  1.7502852314201236e+07  1.6097525451914642e+07  1.5908371113497376e+07  1.5945149151723092e+07  1.6049249367930589e+07  1.5800346590986144e+07  1.5730036734710103e+07  1.5696161766649162e+07  1.5766647187737143e+07  1.5667971641247272e+07  1.5751971163901798e+07  1.6495606110791055e+07  1.6519658706712103e+07  1.6242334494250778e+07  1.6353039564381305e+07  1.6322956701424543e+07  1.7454202528172590e+07  1.7293098713088870e+07  1.6476701350526312e+07  1.6454967495822275e+07  1.6594999452850798e+07  1.6389770563733000e+07  1.6598577009299958e+07  1.6554401670907017e+07  1.6770622800434884e+07  1.6960850452333659e+07  1.6863237170693684e+07  1.5918453339112332e+07  1.6009734624141075e+07  1.6099416283934809e+07  1.5912265344770426e+07  1.5695052842454681e+07  1.5740990128765658e+07  1.5811613872586897e+07  1.5627490058335297e+07  1.5658758540425364e+07  1.5773710789280223e+07  1.5750921927699879e+07  1.7241397508583650e+07  1.7503946084390916e+07  1.7337406858311653e+07  1.7538027072936796e+07  1.7704179923800401e+07  1.7062005248165786e+07  1.6819157275407590e+07  1.7047706854316190e+07  1.6953761869904257e+07  1.6176843307812301e+07  1.6285163695580820e+07  1.6262880996317863e+07  1.6153503472241774e+07  1.7362703272152927e+07  1.7256896004868813e+07  1.7259275526048824e+07  1.7183567660690293e+07  1.5770225261037095e+07  1.5835073940053444e+07  1.6546058541099168e+07  1.6634779772660485e+07  1.6487212457207616e+07  1.7134028580003306e+07  1.7061959621242467e+07  1.7227665706940189e+07  1.7037501906047747e+07  1.6122443888457758e+07  1.5941103435456535e+07  1.5967527728232376e+07  1.6066551144059863e+07  1.5963033573477389e+07  1.6022543055892047e+07  1.5930771157112993e+07  1.5844785065167220e+07  1.5849197474512618e+07  1.5816009499441134e+07  1.5898737808308974e+07  1.5884817994846653e+07  1.6011339360691734e+07  1.6099815040001182e+07  1.6184355578953166e+07  1.6043620469711898e+07  1.5636404313398281e+07  1.5773232696474064e+07  1.5793792248423519e+07  1.5819475600405041e+07  1.5653835400928305e+07  1.5727872670676392e+07  1.6243719912073653e+07  1.6415203212619085e+07  1.6259514934222452e+07  1.6199084247305537e+07  1.5810257530759526e+07  1.5873482074659381e+07  1.5706450204028638e+07  1.5815661666952832e+07  1.5650894805709252e+07  1.5757176191073995e+07  1.5654857297300860e+07  1.5741844325459016e+07  1.5703460853807814e+07  1.5731644813401867e+07  1.5673360943414461e+07  1.6754812307525190e+07  1.6705503071200976e+07  1.6890160675516248e+07  1.6887935735029496e+07  1.7176739452771500e+07  1.5882595772992784e+07  1.5876648638039004e+07  1.7065843166284934e+07  1.6606321165716466e+07  1.6428137233022755e+07  1.6376741822650693e+07  1.6573273027823096e+07  1.7119759842897248e+07  1.7047798225958593e+07  1.6745794817651384e+07  1.6746676315865878e+07  1.6633129003409173e+07  1.6449740146575928e+07  1.5623421425645733e+07  1.5621106611287437e+07  1.5630808148790222e+07  1.6352536797858285e+07  1.6512451442049123e+07  1.7465865016164169e+07  1.7593506380742949e+07  1.7353735535840441e+07  1.7537028627415210e+07  1.7413492818482537e+07  1.7272819531368122e+07  1.7162978176385645e+07  1.7178593876862757e+07  1.6150467225036055e+07  1.5968493389888551e+07  1.6510663268050320e+07  1.6731084147099972e+07  1.5820685969964471e+07  1.5864609781731181e+07  1.5858131205595188e+07  1.5888113545255667e+07  1.6041111911330909e+07  1.6240447582317790e+07  1.6198543766216708e+07  1.6096036169060728e+07  1.6426730328758728e+07  1.6499604666428568e+07  1.6553817358869292e+07  1.6566488652773533e+07  1.6616028107832862e+07  1.6715177726166839e+07  1.6675991184079463e+07  1.6167926841662498e+07  1.5941281645948524e+07  1.5856192090596925e+07  1.5937060495169966e+07  1.5874114142133776e+07  1.5788170581729649e+07  1.6224236138004486e+07  1.6168843429565992e+07  1.6062802272168739e+07  1.7443549836142730e+07  1.6183794015447639e+07  1.6003721308599574e+07  1.6659760807880053e+07  1.6843495127913229e+07  1.7075332100839309e+07  1.6978456883305110e+07  1.5912228874403451e+07  1.5865941937136572e+07  1.5673329166154489e+07  1.6515569613683138e+07  1.5876187542481380e+07  1.6631439789319856e+07  1.5660585235973841e+07  1.5633161936116207e+07  1.6642448107482487e+07  1.5998367289549755e+07  1.6935408126968484e+07  1.5760662756618815e+07  1.5714378576233828e+07  1.5700181650182122e+07  1.5690773784295486e+07  1.5721263593764987e+07  1.6575245953930870e+07  1.5691618231883798e+07  1.5753589119134130e+07  1.5722391313495900e+07  1.7417761866977137e+07  1.6366004701615617e+07  1.6207088696166027e+07  1.6195477242719280e+07  1.6208397380509457e+07  1.5788304460507523e+07  1.7060825205329414e+07  1.7082983004502241e+07  1.5887189065870225e+07  1.5895356777614648e+07  1.6033733444215098e+07  1.6057449714786092e+07  1.5679482739627246e+07  1.6220326571559893e+07  1.6479902625090985e+07  1.6549275231219720e+07  1.6429509395536922e+07  1.6584699685827758e+07  1.5616576719696149e+07  1.5630660717775390e+07  1.5618592752525801e+07  1.5623440620318905e+07  1.7200532862565380e+07  1.5799249667998064e+07  1.5821413030944001e+07  1.5859690650543010e+07  1.6186256641827011e+07  1.6153208298861297e+07  1.6186421330655921e+07  1.6160864280590802e+07  1.5647526534513516e+07  1.5640101624022672e+07  1.5631248822630983e+07  1.6245091693044983e+07  1.7275272778672770e+07  1.7323186837130100e+07  1.7386879814094577e+07  1.6690907892202970e+07  1.7126811242164277e+07  1.6129139924374029e+07  1.5923056789028123e+07  1.5878173570805011e+07  1.5953162629847204e+07  1.6776945789909134e+07  1.6585043007263323e+07  1.6637556205782270e+07  1.5785823588145269e+07  1.5770283077688111e+07  1.5764112270424403e+07  1.6086949192486959e+07  1.6153277216944106e+07  1.6127889967248255e+07  1.6055416096635243e+07  1.6912191106721193e+07  1.5885944286909787e+07  1.5878985598521069e+07  1.5885318843087638e+07  1.6614906173231525e+07  1.6593042657490585e+07  1.6600975768716633e+07  1.5687408252130434e+07  1.5726535328107979e+07  1.5756724664350525e+07  1.5649243954427365e+07  1.5872278226221818e+07  1.5865605141648551e+07  1.6673596857126871e+07  1.6734234590335382e+07  1.6703022018016243e+07  1.6652649930213409e+07  1.6660272564892821e+07  1.6664231000810467e+07  1.6645294344920048e+07  1.5777843958801784e+07  1.5877426445341509e+07  1.6018852308799673e+07  1.7008983895595975e+07  1.5996745365782339e+07  1.5973939374077650e+07  1.5772627736740256e+07  1.5692338023337470e+07  1.5810480217851942e+07  1.5782995098233517e+07  1.5676820887760550e+07  1.5654847923750857e+07  1.6278916787451239e+07  1.6216875818422930e+07  1.6259462788549686e+07  1.6534750930500995e+07  1.6605867381323483e+07  1.5924335334977016e+07  1.5967091797135603e+07  1.5650482882145068e+07  1.5658196330882238e+07  1.5780718273848621e+07  1.5625207530527115e+07  1.5679558109032765e+07  1.5632539873602673e+07  1.5812934160407148e+07  1.7397987960226104e+07  1.6203925594957905e+07  1.6260286132952213e+07  1.6167872304745477e+07  1.7219549964468773e+07  1.7210367868016541e+07  1.7173533643313963e+07  1.6016428769689443e+07  1.6116318136879230e+07  1.6035053062102556e+07  1.5756753033691160e+07  1.6173673768426908e+07  1.6183165659330908e+07  1.5631687434279233e+07  1.5639348056490934e+07  1.6821287638155106e+07  1.6798289311429016e+07  1.6866082019820936e+07  1.5624342721702933e+07  1.5870718692981152e+07  </DataArray> 
</PointData> 
</Piece>
</UnstructuredGrid>
</VTKFile>