<?xml version="1.0"?>
<VTKFile type="UnstructuredGrid"  version="0.1"  >
<UnstructuredGrid>
<Piece  NumberOfPoints="784" NumberOfCells="1320">
<Points>
<DataArray  type="Float64"  NumberOfComponents="3"  format="ascii">266913.131276 586512.314988 0  266738.13716 587762.325998 0  266363.132677 589012.328643 0  266175.641078 590169.601714 0  265666.575631 591040.7699119999 0  264875.64001 591687.766419 0  264900.636161 591845.049083 0  266088.14152 592012.3229499999 0  265561.959259 592661.17101 0  264288.136855 593037.368683 0  263865.194033 593999.8486949999 0  263850.641856 593236.729596 0  263625.634872 592756.525286 0  262689.574249 593299.848918 0  262475.636737 594003.0907310001 0  261934.554452 594340.929792 0  261725.631329 594932.094409 0  261729.256443 595728.498809 0  262138.136044 595012.330523 0  262288.141035 596262.333669 0  261488.994028 597511.480605 0  261234.15567 598316.338928 0  260815.635063 599014.863821 0  261400.643658 599389.7367680001 0  261322.963374 600022.185065 0  261119.455248 600931.061306 0  261607.436504 601293.0629359999 0  260807.446929 602089.899812 0  260025.642878 602988.868697 0  259613.135827 603937.3854499999 0  259050.643123 604100.987861 0  258411.880065 603988.6335979999 0  257764.357469 604449.872569 0  257971.239668 605320.429125 0  258041.396867 605740.635381 0  257188.143339 606987.394312 0  256038.141198 608112.3554550001 0  254788.141633 609087.4026939999 0  253588.140656 609812.362881 0  252338.135706 609737.4048949999 0  251088.138116 609787.404055 0  249963.12851 610287.399466 0  248613.130524 610462.365857 0  247363.132198 610687.407659 0  246113.130532 610837.411551 0  245832.347438 610918.209918 0  245016.946433 610958.5639439999 0  244313.129646 610762.372259 0  244400.622144 611378.093316 0  243939.669208 612460.8930899999 0  242960.649733 611984.892792 0  242170.381438 611919.647351 0  241888.122919 611112.375656 0  241393.380757 610467.6456149999 0  240594.157528 611306.369822 0  240525.621947 610804.648112 0  240363.123632 610512.3745050001 0  239113.123247 610262.374278 0  239813.12126 609037.412459 0  240588.122952 607812.368199 0  241013.119545 606625.9534560001 0  241454.373249 605724.888025 0  242238.120107 604687.3993 0  243088.121248 603462.362766 0  242860.319451 603007.3932640001 0  241563.116617 603812.361344 0  241778.400913 604327.642217 0  242059.837234 604824.879102 0  241475.620201 604923.2402390001 0  241462.182234 605449.881372 0  240906.219606 605674.888222 0  240241.856192 606891.125066 0  239891.734044 607841.012479 0  239048.653431 608724.889805 0  238118.054545 608974.895967 0  238888.111029 607337.406468 0  239738.119992 606212.362729 0  240288.12044 605687.4075229999 0  240380.212307 604729.521696 0  239347.309632 604603.204501 0  238888.112036 604387.408787 0  237913.11173 604687.401386 0  236784.172023 604499.882783 0  236883.408793 603717.08334 0  236154.933927 603595.565605 0  235688.103943 602912.369264 0  235763.108033 601662.366516 0  236363.110805 600412.35884 0  236738.107995 599162.356577 0  236525.607944 598482.2412899999 0  236138.109208 599362.357613 0  235725.063048 600325.4466510001 0  235091.948926 601408.5220979999 0  235188.10921 600312.366344 0  234375.602405 600833.9674270001 0  234663.109308 599912.358011 0  234138.105122 600062.365644 0  233955.307245 599029.561063 0  233338.103791 598387.401556 0  233988.09795 597862.356384 0  235138.101489 596637.3947750001 0  235563.1039 595387.392428 0  236513.103639 594212.356312 0  237163.10684 592987.3929869999 0  238313.103031 591862.3515540001 0  239513.107028 590812.3512640001 0  240638.102135 589787.387271 0  241463.109549 588587.378486 0  242294.489816 587443.735215 0  242913.101099 586512.341804 0  243544.066915 585474.859604 0  243040.448415 585184.975583 0  242438.10214 585337.38015 0  241313.102353 586562.339499 0  240538.107104 587787.382449 0  240114.641085 588588.939407 0  239388.100256 589437.382238 0  238188.104456 590512.346358 0  236938.100507 591362.349798 0  235813.10453 592537.396388 0  234864.502938 593178.7753880001 0  234463.097651 592862.357267 0  235113.0965 591662.3545979999 0  235713.101522 590412.346099 0  235777.688431 589976.7582779999 0  234943.583145 590706.265132 0  234462.482256 591490.2841159999 0  233801.497784 592112.940187 0  233388.099101 591787.394208 0  234013.093099 590437.393065 0  234776.217248 587148.7548100001 0  235163.093726 586562.3486189999 0  235313.098918 585483.229012 0  235250.59732 584662.298153 0  235588.093896 583337.379493 0  236329.432041 582199.858992 0  237188.096234 581462.3349939999 0  237463.088521 580212.335511 0  238350.592558 579057.652616 0  238591.415797 578574.847681 0  238313.094106 577612.328905 0  239229.696732 577695.769664 0  240195.161018 577513.008613 0  240614.996733 577149.8518770001 0  240663.091715 577412.332622 0  240288.092486 578662.334085 0  239942.357258 579508.095811 0  240438.100019 580212.3334220001 0  241338.095553 580387.375355 0  241238.099828 579137.369157 0  241788.097003 577887.370889 0  241983.554649 577241.9220939999 0  242054.178239 576927.8105029999 0  242588.100699 575737.366175 0  243149.324833 574898.583978 0  243695.278626 573919.517981 0  244268.494418 573724.8454239999 0  244995.134063 573930.2767810001 0  245417.314363 573391.601898 0  243450.599125 571859.479773 0  245776.797908 572599.8353060001 0  246779.639852 572973.285167 0  248034.741935 573186.082054 0  249413.10651 573162.3205520001 0  250496.922226 573271.1521899999 0  251613.105126 573237.3551319999 0  252421.824577 572846.032906 0  253256.245022 572580.4733130001 0  253739.471933 571960.9547369999 0  254174.511864 572149.8346569999 0  254484.944333 571684.194807 0  254384.108649 570891.346712 0  254344.002752 570218.26407 0  255025.609604 570829.0294979999 0  255715.005913 570489.264586 0  256218.846343 570774.828355 0  256834.349083 570508.5908 0  257390.092515 570014.308325 0  257624.431042 568493.478911 0  259355.811717 569380.021819 0  260033.372814 569617.066669 0  262679.741751 570320.699974 0  263289.115756 569524.817815 0  263463.114338 570512.301061 0  264638.198419 570687.3443539999 0  265058.220065 571334.378467 0  265447.561421 572077.90485 0  265488.125257 573137.3446020001 0  265131.937715 573963.293593 0  265432.389648 575093.068786 0  265638.122314 576338.029955 0  265750.630817 577371.8281319999 0  265738.570663 578561.9098850001 0  265875.630866 579139.630549 0  266213.129247 579862.311842 0  266563.130472 581112.314509 0  266238.135356 582362.310259 0  265938.12863 583612.320897 0  265738.131342 584762.3210189999 0  266875.638633 585365.358768 0  264018.7239399826 593650.4646671159 0  262236.3944351029 595831.1252656333 0  241846.246678 605206.1436625 0  240200.622106 608424.8903290001 0  240943.4862974102 610939.7757535663 0  236550.6094 599787.3577085 0  238528.1212051503 608102.9081793013 0  244413.4891967989 572609.5960859474 0  236382.0474488751 598808.3067022427 0  235369.601910944 600933.5380148316 0  235413.099011 591037.3503485 0  235446.2251831186 590266.6553871984 0  240475.5921005 578037.3333535 0  240413.173949154 577324.4280286073 0  240574.037899 606283.0066440001 0  263857.9179445 593618.2891454998 0  264153.4303974913 593343.916675058 0  242042.1833925 604946.7714812499 0  241650.3099635 605465.51584375 0  244613.6985165 572229.6575395 0  236631.8579695 598822.2989335 0  235140.029068 600860.444221 0  241767.7287175 604874.0596705 0  242140.15174975 604817.0853906251 0  234781.8558075 600573.1668855001 0  242091.167571125 604881.9284359375 0  234519.3558565 600373.162719 0  254604.8337712102 583989.0014118921 0  250699.5846056537 594617.3297041012 0  250540.4796469513 602258.2940568649 0  248483.7490186612 580334.7345534252 0  258549.2190328319 577893.951823392 0  257067.0067473103 590016.5327808241 0  243285.0921999099 596333.923437875 0  248333.1386145258 589098.0389905117 0  256142.8445072741 595883.3911551933 0  260245.1368072523 583315.2785712298 0  253472.3380211276 578932.2908163272 0  246432.3347504817 599884.5019511909 0  261555.9240922556 588041.186709004 0  247293.1100123104 605823.8307887657 0  246458.2798550911 593168.8646574575 0  252840.0183145193 588226.5564648228 0  249828.2874404451 584740.7888937403 0  255409.5660975206 600458.8956828594 0  260819.9733392385 574219.403683011 0  252584.2262054711 605722.6603825617 0  254049.8830611471 592547.4852571967 0  250015.4356193061 598425.2225922942 0  245872.072249477 577604.9761853142 0  262002.1583249522 579753.4663046852 0  257732.6630933878 586227.970805314 0  250242.5556457866 577017.3316409125 0  244921.6453001869 581816.6358421432 0  256520.3890639471 580904.824006648 0  240779.0970645865 599524.6679555867 0  257100.1829219198 574459.5922545703 0  239912.2630002034 595231.1172704464 0  244703.0875078634 590068.6945953515 0  242549.5490268674 592874.3693043783 0  251586.0465921376 581796.2215047925 0  246643.189997516 596527.447801719 0  251049.7658069622 591057.6752245198 0  253014.5731561695 596998.6601086652 0  238680.2197353724 584542.2309791476 0  259715.365803504 591937.1938619445 0  254097.157218761 575731.4494927844 0  246806.6408589328 586139.0877599345 0  246136.1179750556 602959.471719323 0  253520.7033332401 602835.180253843 0  244125.4295793909 607538.9817227355 0  252546.8895354472 599881.3279113505 0  258289.0983523553 600397.640191779 0  247518.7952199645 583037.3718217331 0  263140.3959879661 582529.2228421422 0  262894.8586894067 585442.3590432997 0  256968.6320599076 593040.7691844478 0  243573.0187527719 600218.2795730785 0  258888.5766127351 595139.7745218446 0  262588.7569809347 576734.8569237856 0  259318.4257992262 580601.2540325444 0  249963.3812725965 607065.7205847671 0  257494.5307999607 583482.5893534871 0  258906.4757205145 572278.8089438241 0  237751.446593475 587300.5805003279 0  255142.4708720699 604956.7580261135 0  258485.4978753244 597756.9250383095 0  255516.7820591553 587791.39641967 0  239758.4692108706 601926.8203218657 0  255873.0092222999 577739.5085867504
[...]
<PointData  Scalars="f_32-0"> 
<DataArray  type="Float64"  Name="f_32-0"  format="ascii">6.6733765899682818e+06  6.7425069453432085e+06  6.8193710759155480e+06  6.8799887270860150e+06  6.9187464543592688e+06  6.9751942841310855e+06  6.9967027644693833e+06  7.0177529900875958e+06  7.0166249255875479e+06  7.0220852388130501e+06  7.0293582652972555e+06  7.0263812915777070e+06  7.0297149314511763e+06  7.1190667182906298e+06  7.1976717541839313e+06  7.2797102142632799e+06  7.4080344260361260e+06  7.5712970509639177e+06  7.5944432230351036e+06  7.6187142126041912e+06  7.7538021560019283e+06  7.8661516203242242e+06  7.9999779095187150e+06  8.0762113703223830e+06  8.1124951409085393e+06  8.1914548176266262e+06  8.2148166398510020e+06  8.2541087339733513e+06  8.3346994278526446e+06  8.3913685082901027e+06  8.4085722924192119e+06  8.4570851914790645e+06  8.5834103914872203e+06  8.6891079592671059e+06  8.7083771396411993e+06  8.7904412345122211e+06  8.8795245699410141e+06  8.9577153614206091e+06  9.0079594289336577e+06  9.0506166777132805e+06  9.1141731988174245e+06  9.1769218153200429e+06  9.2371510741719939e+06  9.2944215489932373e+06  9.3479816224342715e+06  9.3593862107161861e+06  9.3884177533357702e+06  9.4241162601164375e+06  9.4502518532974888e+06  9.4617429267571103e+06  9.4641988786601108e+06  9.4665175303657502e+06  9.4660465759629011e+06  9.4702517744943555e+06  9.4798950433439203e+06  9.4791421666077152e+06  9.4791805632338170e+06  9.4827144890327007e+06  9.4722742691005636e+06  9.4336440091465823e+06  9.3817627191484682e+06  9.3329985328397974e+06  9.2452251223506462e+06  9.0855643813037165e+06  9.0416423517964203e+06  9.1524278109488692e+06  9.1935259030800555e+06  9.2047203670549113e+06  9.2163130567400251e+06  9.2347648114269301e+06  9.2610100077392701e+06  9.3563012963994350e+06  9.3869395369136035e+06  9.4011960163478088e+06  9.4040477320188992e+06  9.3886390122958850e+06  9.3422639271659628e+06  9.2874678938956577e+06  9.2108096117618699e+06  9.1915097890926618e+06  9.1932725329761002e+06  9.1996558433519062e+06  9.2015191117848828e+06  9.1973495823609903e+06  9.1948199595643058e+06  9.1908959894669876e+06  9.1743673808698133e+06  9.1302107470792849e+06  9.0600983674447425e+06  9.0365702973106038e+06  9.0764240690917317e+06  9.0955640036193468e+06  9.1018675631825849e+06  9.0967172914535757e+06  9.0989875929622762e+06  9.0935981541422047e+06  9.0924924126524068e+06  9.0848832399150934e+06  9.0811383552058525e+06  9.0721362885979377e+06  8.9968921373071615e+06  8.9096551671244800e+06  8.7813090433202945e+06  8.6383487028395832e+06  8.4394897491773535e+06  8.1626405576864257e+06  7.8167397221457958e+06  7.4570110121677145e+06  7.1481580173472641e+06  6.9399483772878516e+06  6.7997080254486036e+06  6.8823330158338808e+06  7.0610032853688896e+06  7.4718005146948686e+06  7.7377807592358598e+06  7.8453820157796666e+06  7.9407353382827658e+06  8.0463211067033410e+06  8.1187028427485963e+06  8.1676017478585802e+06  8.1781478406185405e+06  8.1782490708948402e+06  8.1619618478422407e+06  8.1173616652365355e+06  8.1016059714800380e+06  8.1356272862812160e+06  8.1567115436495123e+06  8.1633198611150617e+06  8.1633166665744148e+06  8.1416778120438047e+06  7.9980026191049973e+06  7.9489370267769285e+06  7.8626966333195111e+06  7.8104877125889296e+06  7.7362434765918422e+06  7.6556637224764870e+06  7.5668454603403807e+06  7.5063464829537375e+06  7.4909281311622262e+06  7.5017384498317493e+06  7.5126083044486698e+06  7.5117895309261596e+06  7.5164687467047377e+06  7.5187260240935944e+06  7.5184492280752501e+06  7.5009237098123869e+06  7.4419588613043278e+06  7.2757150221444741e+06  6.9254047713230187e+06  6.6600564756881492e+06  6.5053033382787248e+06  6.4382882741204761e+06  6.4137347006432703e+06  6.3277134500713563e+06  6.2695462389497394e+06  6.2236099040456498e+06  6.2059795657059308e+06  6.1473854082336370e+06  6.0943247568716258e+06  6.1308738351023998e+06  6.0849317383272657e+06  6.0025958691703435e+06  5.8295987255863613e+06  5.6383452949527837e+06  5.5261196613064716e+06  5.4724292322452283e+06  5.4998655289745880e+06  5.5817352730017221e+06  5.6601979175024452e+06  5.7101070044581844e+06  5.8266116818052428e+06  5.8940545357685825e+06  5.9013044256927613e+06  5.9068410394129008e+06  5.9481451976570403e+06  5.9890343162897350e+06  6.0775351888637887e+06  6.1666648547127079e+06  6.2231783351235343e+06  6.2404297852231720e+06  6.2627335265994985e+06  6.3539763522790940e+06  6.3678389901388250e+06  6.3664434550416451e+06  6.3751303040517000e+06  6.3727005358596994e+06  6.3644893199893134e+06  6.3438637164424015e+06  6.3058221832964206e+06  6.2475104593437249e+06  6.1935019078346817e+06  6.1528071168255117e+06  6.1150957095815055e+06  6.1108540234297337e+06  6.1254623686939292e+06  6.1637327741104886e+06  6.2184204278451055e+06  6.3265410799606750e+06  6.5001883349553905e+06  6.6207551907895627e+06  7.0286094087472782e+06  7.6011576725373007e+06  9.2947270084793586e+06  9.4573285723049063e+06  9.4787008776034229e+06  9.0973583090292290e+06  9.3999904002573676e+06  6.1202960870612850e+06  9.0555254494835753e+06  9.1006105515713468e+06  8.1430513414312927e+06  8.1142433823013380e+06  7.5139905240854742e+06  7.5182563645586157e+06  9.3168605214923248e+06  7.0286090779894441e+06  7.0267123444640609e+06  9.2713792846561614e+06  9.3155112820514906e+06  6.1202995734452754e+06  9.0416984290701319e+06  9.1006139912329149e+06  9.2064853263558075e+06  9.2587282423841972e+06  9.0980353973562457e+06  9.2651429534790125e+06  9.0980039981178269e+06  5.5945391323902821e+06  7.2971416985460436e+06  8.5347193685563449e+06  5.7087418033178831e+06  5.4311082604443161e+06  6.2262536322100619e+06  8.4058638129701186e+06  6.4606747163542220e+06  7.4928538275883449e+06  5.9284094340750119e+06  5.1587306822153889e+06  8.4309931464046612e+06  6.5836963840003544e+06  9.0927912328010909e+06  7.4214882650184305e+06  5.7716468952633655e+06  6.0894384815167580e+06  8.1080143891807962e+06  6.0955496056661699e+06  8.8704451979964804e+06  6.7571136929509193e+06  7.9063736354291718e+06  6.0181801998832766e+06  5.7264587584302742e+06  5.8056022657913789e+06  5.3757253796234978e+06  6.3589373326104581e+06  5.5632771203269614e+06  8.9307221064286567e+06  5.7444764900467033e+06  8.6272305126462430e+06  7.0651455601076335e+06  7.9941081703735394e+06  5.6975561360590393e+06  8.0178801940924507e+06  6.4671057807980338e+06  7.6265892320609838e+06  7.5968669613482859e+06  6.9141396297100997e+06  5.2387085256013535e+06  6.4602538619749043e+06  8.8570324519910682e+06  8.5335288291852009e+06  9.3339534611686766e+06  8.0877693750001369e+06  8.1520862531399103e+06  6.1474595225297064e+06  6.0325636776842866e+06  6.4099709379888438e+06  6.9066222695549428e+06  8.7853464416433163e+06  7.4315120368414046e+06  6.0192804360602377e+06  5.6294024064871334e+06  9.0653871403694134e+06  5.7163083294562595e+06  6.1234012903493503e+06  7.8923503133298475e+06  8.7213943220284004e+06  7.8250004190186085e+06  5.5971276946788039e+06  9.1152221794866808e+06  5.2708466133177401e+06  6.8839286976862131e+06  6.9407171956549902e+06  7.0338121144466931e+06  6.3796789152181167e+06  5.5494960230705431e+06  6.7063480907415906e+06  6.0919370027899770e+06  5.4424092076271055e+06  5.7765171272887662e+06  6.2230058571800850e+06  6.3091942934320103e+06  9.2709185236083046e+06  8.8527295758743137e+06  5.7978997994736275e+06  9.1492014591768160e+06  8.4357289140836988e+06  8.2987357505237143e+06  8.9002261701329369e+06  7.4014907142660273e+06  6.5169323018242018e+06  7.7598404102227595e+06  8.3755982219140120e+06  6.1137433114663707e+06  8.7634086375948042e+06  5.5225839435922252e+06  7.2548263108733092e+06  6.3014350031702528e+06  5.6427607910647150e+06  7.5523205483658118e+06  8.7008658830735460e+06  6.8583685739569310e+06  7.9481960275402348e+06  6.7480214338497771e+06  8.3271656955938824e+06  5.7540456787153650e+06  5.9227692257027533e+06  5.9003181156845344e+06  8.8633816657871529e+06  7.4891808105258755e+06  5.9940362781499960e+06  8.9728694314542003e+06  6.8875690134401266e+06  9.0620412540900558e+06  6.2176387674278542e+06  9.2750152046300545e+06  9.2646297511383761e+06  6.3176366094564982e+06  6.9964228718005912e+06  9.2690364579305891e+06  9.3481797574523948e+06  9.0043539108973164e+06  9.0551869639581982e+06  8.0820868523518480e+06  5.8012815413504168e+06  8.9254703446799666e+06  8.7365559910617862e+06  6.3955364455749653e+06  6.9899914536098558e+06  6.8636238505268069e+06  9.3283263609714638e+06  9.2622130173489545e+06  7.2813761757947300e+06  9.1676984035746604e+06  9.1758431943633854e+06  9.2212424929224979e+06  9.3546862432874497e+06  6.7042131141252946e+06  5.9990415429990403e+06  8.0929285375098027e+06  6.0059483893627543e+06  6.9355804178627115e+06  6.0542283191956999e+06  7.9887341707294239e+06  9.4460865324064232e+06  7.7743429258038290e+06  8.1148759119883394e+06  9.0179229573657420e+06  6.9440143098894190e+06  6.2158110330638578e+06  8.1000129943809770e+06  5.3561070427310960e+06  6.2139823814475890e+06  9.0509382724744547e+06  8.9830987185433954e+06  7.4435905439692456e+06  9.4462622777082827e+06  5.5152761463368135e+06  9.1090873689454701e+06  7.7916315663894257e+06  6.3497122742437087e+06  5.7846115950319562e+06  5.5162270296350261e+06  8.3784142171807261e+06  9.0066808696876373e+06  8.9394119106676988e+06  8.1284033561035749e+06  9.3063961626951657e+06  7.4860007372203050e+06  6.1064601463335063e+06  6.1068290898392294e+06  6.1248946135108406e+06  9.2683496115980595e+06  9.2833661390511412e+06  9.2894371405605432e+06  8.7132525936637055e+06  8.9424294340558723e+06  9.3012418489870913e+06  9.2035578924315814e+06  7.8195065874890117e+06  9.4764552064382397e+06  9.4738187197200414e+06  7.1867227502055280e+06  6.1277575102866348e+06  7.4815203121758681e+06  9.0461761695717610e+06  7.1718729530429300e+06  7.6042442481574509e+06  9.4549786700386815e+06  7.2736591557200020e+06  8.4739626440758202e+06  6.3123827736002058e+06  6.4170613978686482e+06  6.3680955770321293e+06  6.4676907003224399e+06  9.0804396465846989e+06  6.9876464160738112e+06  7.0158637362850327e+06  6.9558243518292429e+06  7.0099240719636856e+06  6.8986410281266002e+06  6.3445236412803456e+06  6.2714964474097257e+06  7.0035600335884113e+06  6.3283847134443559e+06  8.1749461228840267e+06  8.1739289052559743e+06  9.4674082564727962e+06  7.5476352749497117e+06  7.1484303076434983e+06  6.6446258581349486e+06  6.6806516336618094e+06  6.7670911745665539e+06  6.9660297476511747e+06  6.7960031728608124e+06  6.9264992786988923e+06  7.2779174522017837e+06  6.9874762886624075e+06  7.1578590041194251e+06  7.5102375843310989e+06  7.3260992435075697e+06  6.6609993255452150e+06  6.9670724216456003e+06  5.7249153977709087e+06  5.8081636893788110e+06  5.6798355936563779e+06  5.5788830374487173e+06  5.5904090347137265e+06  5.4876839449026333e+06  5.5276724526109025e+06  5.4795262277506310e+06  5.4812194008723572e+06  5.5646452795144301e+06  6.2003378287167503e+06  6.1723767510842066e+06  6.1726838640241874e+06  6.1318771878169551e+06  6.1503626555166831e+06  6.1108852585405568e+06  6.0970304611399844e+06  6.1247201915132049e+06  6.1166158255598703e+06  6.0952102979407525e+06  6.0925727022101469e+06  6.1002970476484466e+06  6.1178777687388891e+06  6.1800178239787864e+06  6.1345204756395305e+06  5.5368183618685184e+06  5.6170361462072767e+06  5.6043271000054814e+06  5.5512098213180341e+06  7.5840670579699762e+06  7.4499818132568114e+06  7.1721633330888208e+06  7.4037981843531244e+06  8.3241866265050266e+06  8.7078970543149803e+06  8.4141521982891113e+06  8.6429788093764614e+06  5.9098366789499605e+06  5.6037241630630884e+06  5.6345160765124978e+06  5.7653051518107820e+06  5.5913332839891836e+06  5.4413977038152404e+06  5.5540598452283144e+06  5.5070034033286842e+06  5.3426705378309665e+06  5.5613195249041831e+06  6.6026958415297782e+06  6.5391760322043113e+06  5.8960773533459064e+06  6.1016288765011653e+06  6.2506757692953544e+06  8.5228620209530704e+06  8.2119910304455571e+06  6.4179065304131992e+06  6.4255363221537927e+06  6.6754542934153760e+06  6.2908959043059321e+06  6.6360254483920345e+06  6.5433742806094773e+06  7.1509526351369768e+06  7.5538376016176408e+06  7.3654453691504877e+06  5.7251471966029098e+06  5.9568475339128487e+06  6.1678517615238400e+06  5.7560600947412625e+06  5.1446707360003712e+06  5.3787921463201120e+06  5.4110786961354036e+06  5.0859393500933032e+06  5.1894013634476336e+06  5.3656189013204817e+06  5.2443196433410207e+06  8.1442410130326385e+06  8.6398069541970566e+06  8.3348661303452393e+06  8.6988579070338085e+06  8.9873980782882553e+06  7.7627144101199573e+06  7.1275684732173365e+06  7.6861329233817291e+06  7.4337927962099295e+06  5.6056520895739971e+06  5.8814650286479900e+06  5.9265191025039619e+06  5.5899621932119727e+06  8.3247055046744524e+06  8.0751024150052192e+06  8.1336934747138312e+06  7.9158410780280838e+06  5.9290581916489135e+06  6.0423559214709587e+06  6.6034602019826639e+06  6.7965620407974906e+06  6.4243164421622157e+06  7.9172671878745062e+06  7.7409025011698101e+06  8.1120589418071974e+06  7.7018504222675301e+06  6.1723366564474609e+06  5.8987554273572899e+06  5.8134737716926979e+06  5.9493969736997904e+06  6.0157870560227083e+06  6.1561603704969464e+06  5.8061468932164051e+06  5.8624827714311937e+06  5.6264864740230748e+06  5.7195462639251715e+06  5.8513601346945353e+06  5.9047899550989047e+06  5.7317335514085041e+06  5.6516773406637916e+06  6.0500851563492585e+06  5.4889626311985906e+06  5.1444555233199438e+06  5.3637267103621578e+06  5.5674919084459096e+06  5.5234352497682674e+06  5.2632270381276608e+06  5.4342110684159780e+06  6.2081114387540547e+06  6.6735847132449150e+06  6.3530828401207840e+06  6.1224794852479100e+06  5.6054330795052992e+06  5.6664201066519180e+06  5.3740099922489934e+06  5.5425812927116835e+06  5.4817709047115268e+06  5.9610114101825682e+06  5.4500741563713439e+06  5.7439992846700102e+06  5.7752471286039092e+06  5.8926290429861788e+06  5.6261621940669930e+06  6.9210036918478003e+06  6.8790679588382728e+06  7.2604865294699594e+06  7.3139838750698343e+06  7.9621147059187461e+06  5.5959977274188483e+06  5.5673311156239947e+06  7.7855460264648627e+06  6.7382492065261817e+06  6.2842940460715825e+06  6.1892182539912844e+06  6.6716190370018790e+06  7.8392610984563520e+06  7.6937393799988683e+06  7.4864602456245702e+06  7.4482448478249013e+06  6.8910873412699457e+06  6.6077011440884527e+06  5.2329397892604116e+06  5.2808723793771584e+06  5.3722029239007793e+06  6.3086893193266140e+06  6.5786169466275005e+06  8.5729538447962645e+06  8.7995020551501960e+06  8.3228402636908069e+06  8.6984786683971882e+06  8.4471351053111870e+06  8.1998857463847669e+06  7.8847043072718205e+06  7.9634104112662748e+06  5.9739053403833397e+06  5.9762673410296487e+06  6.4704743566771746e+06  7.1271873129905490e+06  5.8921878928747429e+06  6.0281849720345885e+06  6.0833429127567550e+06  5.7274888121737065e+06  5.9279435571529539e+06  5.7985737270410629e+06  5.9256740773519585e+06  5.4768003920587981e+06  6.6555666035708999e+06  6.8110925593434880e+06  6.9385460026889453e+06  7.0575316987795429e+06  7.1026777650970705e+06  6.9401388631985737e+06  6.9261337245656997e+06  6.1557250546362074e+06  5.6807554985491885e+06  5.5203390972545361e+06  5.6840281015527211e+06  5.7058380236671492e+06  5.6366675611868957e+06  6.2659716694028266e+06  5.9250536465527276e+06  5.6726056967100678e+06  8.5346820228493847e+06  5.7801985167830307e+06  5.7477439150280524e+06  6.7235476156339534e+06  7.1392305716594961e+06  7.7283369227181887e+06  7.5066168297550660e+06  6.0207194519139444e+06  6.1697550316453651e+06  5.6621036427384261e+06  6.8173098085024832e+06  6.0824807538406011e+06  7.1060252426310265e+06  5.3824599561002618e+06  5.4138360638052914e+06  7.2184562638899302e+06  5.5042154667718587e+06  7.4940133106429502e+06  5.5065615077311900e+06  5.4067810776932165e+06  5.4627257187759243e+06  5.3828256269028913e+06  5.5443006952182893e+06  6.5728422348423051e+06  5.1097957371569332e+06  5.2660016197942924e+06  5.1783414912691368e+06  8.4845286283381395e+06  6.1227718859001575e+06  5.6754204262600131e+06  5.6684056680470165e+06  5.7471008648725459e+06  5.9302688613139614e+06  7.7382209115855061e+06  7.7904586707259417e+06  5.6812181075943811e+06  5.7458973647140525e+06  5.6305349563607527e+06  5.6178656584151220e+06  5.2337617902593361e+06  6.1492978975932254e+06  6.4200936854933221e+06  6.5971363691907506e+06  6.2961216464891015e+06  6.6933758985551884e+06  5.1505063268204061e+06  5.3518135929636406e+06  5.2536814400430247e+06  5.3032656136880470e+06  7.9810112433681004e+06  5.5692727387165595e+06  5.6212637691163532e+06  5.6840625814290261e+06  5.7359631593792858e+06  5.5777559177837372e+06  5.6823945856237551e+06  5.7369943265824812e+06  5.2293806371122804e+06  5.3332152578379009e+06  5.2497945427387962e+06  6.1255665497559356e+06  8.2129648540762030e+06  8.3076022418541815e+06  8.4286172413538024e+06  7.3357908925779769e+06  7.8109265479240688e+06  5.6304791970718997e+06  5.6300196964328652e+06  5.5715196901447624e+06  5.6926460358971404e+06  6.9887027343581701e+06  6.6297429120527739e+06  6.7216291878028791e+06  5.6310975236677639e+06  5.6540353426695010e+06  5.7360942404896813e+06  5.9270234231410092e+06  6.0141779874060033e+06  5.9205601600566870e+06  5.8215550814693877e+06  7.3091570317994766e+06  6.0894675289826272e+06  6.0371641825131215e+06  6.0652033001717478e+06  7.0466218757925685e+06  7.0197534024433661e+06  7.0238829847551826e+06  5.3876038050229074e+06  5.4732755246375650e+06  5.5719968773029922e+06  5.4935630509662470e+06  6.1266661937755169e+06  6.0818551515625613e+06  7.2120797315584328e+06  7.3819665093236500e+06  7.2881059624570664e+06  7.1871657223168798e+06  7.1899376972299498e+06  7.2413701825148407e+06  7.1290190438687736e+06  5.6581247089190157e+06  6.1061160392917497e+06  5.5065414817854492e+06  7.6355252947630985e+06  5.6925005256285314e+06  5.6814404273459911e+06  5.5580284650414027e+06  5.3656717938278709e+06  5.5810385999440290e+06  5.5486837717402242e+06  5.3318816092785690e+06  5.3786742173237614e+06  6.0656785746772373e+06  5.8982035353029212e+06  6.0895930454247799e+06  6.5527511405088035e+06  6.6245489852716886e+06  5.7457778890032768e+06  5.8537921756371828e+06  5.0553323701323979e+06  5.1125760634867782e+06  5.3224891288625877e+06  5.0731033530205116e+06  5.2851250237116190e+06  5.1844700081505021e+06  5.4069793264987795e+06  8.4484555001937151e+06  5.6856765588220404e+06  5.8242450943766590e+06  5.6757191531531038e+06  7.9821646632400323e+06  7.9754703268745067e+06  7.8906957028734274e+06  5.8736027067479258e+06  6.0423371480461303e+06  5.8395119558849093e+06  5.5336840011348845e+06  6.0290286697311010e+06  6.1287055145177403e+06  5.3422868489760756e+06  5.4209985315124001e+06  7.0815783710736763e+06  7.0242185985068632e+06  7.1904946027065748e+06  5.3205452014991241e+06  6.0578206847109394e+06  </DataArray> 
</PointData> 
</Piece>
</UnstructuredGrid>
</VTKFile>