<?xml version="1.0"?>
<VTKFile type="UnstructuredGrid"  version="0.1"  >
<UnstructuredGrid>
<Piece  NumberOfPoints="784" NumberOfCells="1320">
<Points>
<DataArray  type="Float64"  NumberOfComponents="3"  format="ascii">266913.131276 586512.314988 0  266738.13716 587762.325998 0  266363.132677 589012.328643 0  266175.641078 590169.601714 0  265666.575631 591040.7699119999 0  264875.64001 591687.766419 0  264900.636161 591845.049083 0  266088.14152 592012.3229499999 0  265561.959259 592661.17101 0  264288.136855 593037.368683 0  263865.194033 593999.8486949999 0  263850.641856 593236.729596 0  263625.634872 592756.525286 0  262689.574249 593299.848918 0  262475.636737 594003.0907310001 0  261934.554452 594340.929792 0  261725.631329 594932.094409 0  261729.256443 595728.498809 0  262138.136044 595012.330523 0  262288.141035 596262.333669 0  261488.994028 597511.480605 0  261234.15567 598316.338928 0  260815.635063 599014.863821 0  261400.643658 599389.7367680001 0  261322.963374 600022.185065 0  261119.455248 600931.061306 0  261607.436504 601293.0629359999 0  260807.446929 602089.899812 0  260025.642878 602988.868697 0  259613.135827 603937.3854499999 0  259050.643123 604100.987861 0  258411.880065 603988.6335979999 0  257764.357469 604449.872569 0  257971.239668 605320.429125 0  258041.396867 605740.635381 0  257188.143339 606987.394312 0  256038.141198 608112.3554550001 0  254788.141633 609087.4026939999 0  253588.140656 609812.362881 0  252338.135706 609737.4048949999 0  251088.138116 609787.404055 0  249963.12851 610287.399466 0  248613.130524 610462.365857 0  247363.132198 610687.407659 0  246113.130532 610837.411551 0  245832.347438 610918.209918 0  245016.946433 610958.5639439999 0  244313.129646 610762.372259 0  244400.622144 611378.093316 0  243939.669208 612460.8930899999 0  242960.649733 611984.892792 0  242170.381438 611919.647351 0  241888.122919 611112.375656 0  241393.380757 610467.6456149999 0  240594.157528 611306.369822 0  240525.621947 610804.648112 0  240363.123632 610512.3745050001 0  239113.123247 610262.374278 0  239813.12126 609037.412459 0  240588.122952 607812.368199 0  241013.119545 606625.9534560001 0  241454.373249 605724.888025 0  242238.120107 604687.3993 0  243088.121248 603462.362766 0  242860.319451 603007.3932640001 0  241563.116617 603812.361344 0  241778.400913 604327.642217 0  242059.837234 604824.879102 0  241475.620201 604923.2402390001 0  241462.182234 605449.881372 0  240906.219606 605674.888222 0  240241.856192 606891.125066 0  239891.734044 607841.012479 0  239048.653431 608724.889805 0  238118.054545 608974.895967 0  238888.111029 607337.406468 0  239738.119992 606212.362729 0  240288.12044 605687.4075229999 0  240380.212307 604729.521696 0  239347.309632 604603.204501 0  238888.112036 604387.408787 0  237913.11173 604687.401386 0  236784.172023 604499.882783 0  236883.408793 603717.08334 0  236154.933927 603595.565605 0  235688.103943 602912.369264 0  235763.108033 601662.366516 0  236363.110805 600412.35884 0  236738.107995 599162.356577 0  236525.607944 598482.2412899999 0  236138.109208 599362.357613 0  235725.063048 600325.4466510001 0  235091.948926 601408.5220979999 0  235188.10921 600312.366344 0  234375.602405 600833.9674270001 0  234663.109308 599912.358011 0  234138.105122 600062.365644 0  233955.307245 599029.561063 0  233338.103791 598387.401556 0  233988.09795 597862.356384 0  235138.101489 596637.3947750001 0  235563.1039 595387.392428 0  236513.103639 594212.356312 0  237163.10684 592987.3929869999 0  238313.103031 591862.3515540001 0  239513.107028 590812.3512640001 0  240638.102135 589787.387271 0  241463.109549 588587.378486 0  242294.489816 587443.735215 0  242913.101099 586512.341804 0  243544.066915 585474.859604 0  243040.448415 585184.975583 0  242438.10214 585337.38015 0  241313.102353 586562.339499 0  240538.107104 587787.382449 0  240114.641085 588588.939407 0  239388.100256 589437.382238 0  238188.104456 590512.346358 0  236938.100507 591362.349798 0  235813.10453 592537.396388 0  234864.502938 593178.7753880001 0  234463.097651 592862.357267 0  235113.0965 591662.3545979999 0  235713.101522 590412.346099 0  235777.688431 589976.7582779999 0  234943.583145 590706.265132 0  234462.482256 591490.2841159999 0  233801.497784 592112.940187 0  233388.099101 591787.394208 0  234013.093099 590437.393065 0  234776.217248 587148.7548100001 0  235163.093726 586562.3486189999 0  235313.098918 585483.229012 0  235250.59732 584662.298153 0  235588.093896 583337.379493 0  236329.432041 582199.858992 0  237188.096234 581462.3349939999 0  237463.088521 580212.335511 0  238350.592558 579057.652616 0  238591.415797 578574.847681 0  238313.094106 577612.328905 0  239229.696732 577695.769664 0  240195.161018 577513.008613 0  240614.996733 577149.8518770001 0  240663.091715 577412.332622 0  240288.092486 578662.334085 0  239942.357258 579508.095811 0  240438.100019 580212.3334220001 0  241338.095553 580387.375355 0  241238.099828 579137.369157 0  241788.097003 577887.370889 0  241983.554649 577241.9220939999 0  242054.178239 576927.8105029999 0  242588.100699 575737.366175 0  243149.324833 574898.583978 0  243695.278626 573919.517981 0  244268.494418 573724.8454239999 0  244995.134063 573930.2767810001 0  245417.314363 573391.601898 0  243450.599125 571859.479773 0  245776.797908 572599.8353060001 0  246779.639852 572973.285167 0  248034.741935 573186.082054 0  249413.10651 573162.3205520001 0  250496.922226 573271.1521899999 0  251613.105126 573237.3551319999 0  252421.824577 572846.032906 0  253256.245022 572580.4733130001 0  253739.471933 571960.9547369999 0  254174.511864 572149.8346569999 0  254484.944333 571684.194807 0  254384.108649 570891.346712 0  254344.002752 570218.26407 0  255025.609604 570829.0294979999 0  255715.005913 570489.264586 0  256218.846343 570774.828355 0  256834.349083 570508.5908 0  257390.092515 570014.308325 0  257624.431042 568493.478911 0  259355.811717 569380.021819 0  260033.372814 569617.066669 0  262679.741751 570320.699974 0  263289.115756 569524.817815 0  263463.114338 570512.301061 0  264638.198419 570687.3443539999 0  265058.220065 571334.378467 0  265447.561421 572077.90485 0  265488.125257 573137.3446020001 0  265131.937715 573963.293593 0  265432.389648 575093.068786 0  265638.122314 576338.029955 0  265750.630817 577371.8281319999 0  265738.570663 578561.9098850001 0  265875.630866 579139.630549 0  266213.129247 579862.311842 0  266563.130472 581112.314509 0  266238.135356 582362.310259 0  265938.12863 583612.320897 0  265738.131342 584762.3210189999 0  266875.638633 585365.358768 0  264018.7239399826 593650.4646671159 0  262236.3944351029 595831.1252656333 0  241846.246678 605206.1436625 0  240200.622106 608424.8903290001 0  240943.4862974102 610939.7757535663 0  236550.6094 599787.3577085 0  238528.1212051503 608102.9081793013 0  244413.4891967989 572609.5960859474 0  236382.0474488751 598808.3067022427 0  235369.601910944 600933.5380148316 0  235413.099011 591037.3503485 0  235446.2251831186 590266.6553871984 0  240475.5921005 578037.3333535 0  240413.173949154 577324.4280286073 0  240574.037899 606283.0066440001 0  263857.9179445 593618.2891454998 0  264153.4303974913 593343.916675058 0  242042.1833925 604946.7714812499 0  241650.3099635 605465.51584375 0  244613.6985165 572229.6575395 0  236631.8579695 598822.2989335 0  235140.029068 600860.444221 0  241767.7287175 604874.0596705 0  242140.15174975 604817.0853906251 0  234781.8558075 600573.1668855001 0  242091.167571125 604881.9284359375 0  234519.3558565 600373.162719 0  254604.8337712102 583989.0014118921 0  250699.5846056537 594617.3297041012 0  250540.4796469513 602258.2940568649 0  248483.7490186612 580334.7345534252 0  258549.2190328319 577893.951823392 0  257067.0067473103 590016.5327808241 0  243285.0921999099 596333.923437875 0  248333.1386145258 589098.0389905117 0  256142.8445072741 595883.3911551933 0  260245.1368072523 583315.2785712298 0  253472.3380211276 578932.2908163272 0  246432.3347504817 599884.5019511909 0  261555.9240922556 588041.186709004 0  247293.1100123104 605823.8307887657 0  246458.2798550911 593168.8646574575 0  252840.0183145193 588226.5564648228 0  249828.2874404451 584740.7888937403 0  255409.5660975206 600458.8956828594 0  260819.9733392385 574219.403683011 0  252584.2262054711 605722.6603825617 0  254049.8830611471 592547.4852571967 0  250015.4356193061 598425.2225922942 0  245872.072249477 577604.9761853142 0  262002.1583249522 579753.4663046852 0  257732.6630933878 586227.970805314 0  250242.5556457866 577017.3316409125 0  244921.6453001869 581816.6358421432 0  256520.3890639471 580904.824006648 0  240779.0970645865 599524.6679555867 0  257100.1829219198 574459.5922545703 0  239912.2630002034 595231.1172704464 0  244703.0875078634 590068.6945953515 0  242549.5490268674 592874.3693043783 0  251586.0465921376 581796.2215047925 0  246643.189997516 596527.447801719 0  251049.7658069622 591057.6752245198 0  253014.5731561695 596998.6601086652 0  238680.2197353724 584542.2309791476 0  259715.365803504 591937.1938619445 0  254097.157218761 575731.4494927844 0  246806.6408589328 586139.0877599345 0  246136.1179750556 602959.471719323 0  253520.7033332401 602835.180253843 0  244125.4295793909 607538.9817227355 0  252546.8895354472 599881.3279113505 0  258289.0983523553 600397.640191779 0  247518.7952199645 583037.3718217331 0  263140.3959879661 582529.2228421422 0  262894.8586894067 585442.3590432997 0  256968.6320599076 593040.7691844478 0  243573.0187527719 600218.2795730785 0  258888.5766127351 595139.7745218446 0  262588.7569809347 576734.8569237856 0  259318.4257992262 580601.2540325444 0  249963.3812725965 607065.7205847671 0  257494.5307999607 583482.5893534871 0  258906.4757205145 572278.8089438241 0  237751.446593475 587300.5805003279 0  255142.4708720699 604956.7580261135 0  258485.4978753244 597756.9250383095 0  255516.7820591553 587791.39641967 0  239758.4692108706 601926.8203218657 0  255873.0092222999 577739.5085867504
[...]
<PointData  Scalars="f_32-0"> 
<DataArray  type="Float64"  Name="f_32-0"  format="ascii">2.4135910876634035e+07  2.4236973789182384e+07  2.4353038217732828e+07  2.4446265541420940e+07  2.4509282409005124e+07  2.4601921053639814e+07  2.4632838676249433e+07  2.4656667645328749e+07  2.4656916665964782e+07  2.4678065145436022e+07  2.4688144319976397e+07  2.4686183524841622e+07  2.4705030409002714e+07  2.4874894176727727e+07  2.4998453806913003e+07  2.5118049156774696e+07  2.5292456967863921e+07  2.5500398666798655e+07  2.5527791733545918e+07  2.5559234486679930e+07  2.5728305663533956e+07  2.5865969140046693e+07  2.6028435141908944e+07  2.6119567646426253e+07  2.6163521822428901e+07  2.6259493400430296e+07  2.6287753636262398e+07  2.6337083131093990e+07  2.6438633971129492e+07  2.6510501928946402e+07  2.6532937361237701e+07  2.6596833725677878e+07  2.6761326596109781e+07  2.6898098843439281e+07  2.6923115592889465e+07  2.7031372901827537e+07  2.7150271851440027e+07  2.7254800916686099e+07  2.7322427214310430e+07  2.7380527583629388e+07  2.7465913506915104e+07  2.7548623089859858e+07  2.7626835232628200e+07  2.7700160535770491e+07  2.7767773998669125e+07  2.7782044342524923e+07  2.7818215119743060e+07  2.7862301052172571e+07  2.7894145568088673e+07  2.7908108844376564e+07  2.7911318562256392e+07  2.7914329965833809e+07  2.7914097031472806e+07  2.7919847519610334e+07  2.7931701860915761e+07  2.7930814622752678e+07  2.7930940625425760e+07  2.7935327448146939e+07  2.7922981955941152e+07  2.7877828553090073e+07  2.7817756140169520e+07  2.7761557610110193e+07  2.7661120929549124e+07  2.7481736193200130e+07  2.7432294449042238e+07  2.7551518051495284e+07  2.7596531736916650e+07  2.7608850825099595e+07  2.7621687060995206e+07  2.7642148893477380e+07  2.7671390884234957e+07  2.7778047418241967e+07  2.7812537503131013e+07  2.7828682320421133e+07  2.7831926887519602e+07  2.7814464215832349e+07  2.7762284286337730e+07  2.7700922544403091e+07  2.7615271791477345e+07  2.7592919156827334e+07  2.7594312553625964e+07  2.7600541701558720e+07  2.7602280572217237e+07  2.7597542827762663e+07  2.7594509904400852e+07  2.7590105053218801e+07  2.7571944893892519e+07  2.7523783575293157e+07  2.7447032102572683e+07  2.7419424273137081e+07  2.7459106084728301e+07  2.7478616898319446e+07  2.7485081424697291e+07  2.7479806024891913e+07  2.7482159161417007e+07  2.7476608231770594e+07  2.7475473888114996e+07  2.7467618945747904e+07  2.7463741632337291e+07  2.7454443218098935e+07  2.7376602935656767e+07  2.7286133926172961e+07  2.7153529925978336e+07  2.7007111107694026e+07  2.6805941797631387e+07  2.6532255788725737e+07  2.6198892077678494e+07  2.5856924160782520e+07  2.5540322082836445e+07  2.5277279627089851e+07  2.4941212354394190e+07  2.4814027376590271e+07  2.4824329384620003e+07  2.4971607219034512e+07  2.5098752758830160e+07  2.5157500766868781e+07  2.5213361386585902e+07  2.5278418673185073e+07  2.5324362672560461e+07  2.5356151192409143e+07  2.5363234274189271e+07  2.5363304648220912e+07  2.5352435414804019e+07  2.5323600830339130e+07  2.5313686397883620e+07  2.5335855816891249e+07  2.5349674231016625e+07  2.5354082511710234e+07  2.5354089581398670e+07  2.5339814890338942e+07  2.5248860236605313e+07  2.5218407378790762e+07  2.5165287901124716e+07  2.5133502994967703e+07  2.5088667360891137e+07  2.5040228974370878e+07  2.4987649653740600e+07  2.4951302944410060e+07  2.4942234128428604e+07  2.4948830481135879e+07  2.4955505949788217e+07  2.4954932470243059e+07  2.4957599726039816e+07  2.4958933028017748e+07  2.4958769417777788e+07  2.4948239896068987e+07  2.4913016600835547e+07  2.4814948318739187e+07  2.4600133699091893e+07  2.4414486881814972e+07  2.4297517452752974e+07  2.4243958494131736e+07  2.4223785541453190e+07  2.4151165619676501e+07  2.4100400199441571e+07  2.4058977567829657e+07  2.4043279588902544e+07  2.3991169835205756e+07  2.3941986146732781e+07  2.3974370500159543e+07  2.3932607371232018e+07  2.3859213234658144e+07  2.3701236820696812e+07  2.3501423800982360e+07  2.3339143259205587e+07  2.3171502711843289e+07  2.3085622622865111e+07  2.3051656830639288e+07  2.3055625184779301e+07  2.3065781717006531e+07  2.3106101606061332e+07  2.3138588845917456e+07  2.3143348351655219e+07  2.3141566236191183e+07  2.3156586672071945e+07  2.3172634084143210e+07  2.3217286885150593e+07  2.3274474876784049e+07  2.3319679676277332e+07  2.3314814778329737e+07  2.3318432337341920e+07  2.3346312663277823e+07  2.3355897877392918e+07  2.3350256142285846e+07  2.3346950675576109e+07  2.3339199602843583e+07  2.3323418504305322e+07  2.3291664540834241e+07  2.3237383506786872e+07  2.3156334294039760e+07  2.3094191249794457e+07  2.3068524470601764e+07  2.3089650017128345e+07  2.3132641306981094e+07  2.3203209009034697e+07  2.3315026363711193e+07  2.3447090077499326e+07  2.3640601274446853e+07  2.3897639498884067e+07  2.4061092730904996e+07  2.4687539916202821e+07  2.5536902826777369e+07  2.7717622296947669e+07  2.7905450325286351e+07  2.7930255555948358e+07  2.7487939029319003e+07  2.7827314978989545e+07  2.3964544904870540e+07  2.7438033759351306e+07  2.7483791155491352e+07  2.5340098197120257e+07  2.5321958621573456e+07  2.4956109349386957e+07  2.4958655533428058e+07  2.7733809184540477e+07  2.4687528092642646e+07  2.4685819859906118e+07  2.7690924816626869e+07  2.7741458042211723e+07  2.3964545871703673e+07  2.7426448057670746e+07  2.7483794508813906e+07  2.7610803276562743e+07  2.7676494660241392e+07  2.7481175561836131e+07  2.7683808265909292e+07  2.7481143287212588e+07  2.3510031766875152e+07  2.5586651760966904e+07  2.6826240515466474e+07  2.3814773580664381e+07  2.2631591919349045e+07  2.4262502863202043e+07  2.6761866942634970e+07  2.4958947341124151e+07  2.5552658569151010e+07  2.3384268502116527e+07  2.2940219662612129e+07  2.6818882045790456e+07  2.4178735939718533e+07  2.7471574093658693e+07  2.5850253739584878e+07  2.4144985562049415e+07  2.4222747339936644e+07  2.6297170602451574e+07  2.3069390306206994e+07  2.7158417704150964e+07  2.4934018446443181e+07  2.6246053432630882e+07  2.3965458538418859e+07  2.2950818882885043e+07  2.3653249428438447e+07  2.3345765890603755e+07  2.4360268635046910e+07  2.2967535362653073e+07  2.7311035117851753e+07  2.2892508231456589e+07  2.6995144299219929e+07  2.5623095295543276e+07  2.6383730791876949e+07  2.3613917742332898e+07  2.6356934626226518e+07  2.4874740663783345e+07  2.5828822810341880e+07  2.5016759107064713e+07  2.4753157273664933e+07  2.2826581086171530e+07  2.4790059500749782e+07  2.7238868449134640e+07  2.6753143455465473e+07  2.7758650309745923e+07  2.6321722408141583e+07  2.6236586928995952e+07  2.4267077976924408e+07  2.3398783162668750e+07  2.3869681419514131e+07  2.4957076273576591e+07  2.7156859924367364e+07  2.5389763088560753e+07  2.2968556196205884e+07  2.2901651346708599e+07  2.7415811747520827e+07  2.3334144918750439e+07  2.3179585231542345e+07  2.5184263195590936e+07  2.6950600272056069e+07  2.5849971950232305e+07  2.3830041033230297e+07  2.7510182508881241e+07  2.2641565012594461e+07  2.4561347457033627e+07  2.4691023505428802e+07  2.5422400445582252e+07  2.4255798411793765e+07  2.3251373592134941e+07  2.4227231704789773e+07  2.4335008029701430e+07  2.3409277608772781e+07  2.3702072663322181e+07  2.3781474234168995e+07  2.4060882460742578e+07  2.7676503361067228e+07  2.7167520609611578e+07  2.3822304745368253e+07  2.7548786252411027e+07  2.6787526033807576e+07  2.6676631594369356e+07  2.7277867890490618e+07  2.4900009703585796e+07  2.4626569331254382e+07  2.5924706426728301e+07  2.6518732691734198e+07  2.4429744632958803e+07  2.7116162738878764e+07  2.3764085370583046e+07  2.5430182569436178e+07  2.3270060009493895e+07  2.3681118231374204e+07  2.5890274570177555e+07  2.7068572186008513e+07  2.5421587211149082e+07  2.6328914094835352e+07  2.5235562044461563e+07  2.6695042663444638e+07  2.2804479776329365e+07  2.4032691282479018e+07  2.3941718531701077e+07  2.7238476307233896e+07  2.5966941155369535e+07  2.3161663373862550e+07  2.7279387578235086e+07  2.5146309117058586e+07  2.7451302842932586e+07  2.3146232846320588e+07  2.7693612307677235e+07  2.7682836309705392e+07  2.4162927631163869e+07  2.4647492493204404e+07  2.7688155245753385e+07  2.7769796377205670e+07  2.7387848092780687e+07  2.7437102922455058e+07  2.5301690327896424e+07  2.3039763757203132e+07  2.7309484211500809e+07  2.6961527174319956e+07  2.4213079166681778e+07  2.4628814941308334e+07  2.4455854218556173e+07  2.7755840067108992e+07  2.7680441440007515e+07  2.5165556445162136e+07  2.7567061313825939e+07  2.7582615761426322e+07  2.7633742398702256e+07  2.7776590444284905e+07  2.4697119568742204e+07  2.3867321998142894e+07  2.5307969487696726e+07  2.3147268695357647e+07  2.4556955952715714e+07  2.3083344866042510e+07  2.5242888728958670e+07  2.7891699445521284e+07  2.5112532296733569e+07  2.5322534767000303e+07  2.7401337460073564e+07  2.4753145300342873e+07  2.3280662999765955e+07  2.5312943755449113e+07  2.3025413128796648e+07  2.4052462625599835e+07  2.7433057175703619e+07  2.7362788185321689e+07  2.4915069772404209e+07  2.7890550976264700e+07  2.3424989830661524e+07  2.7501305174705103e+07  2.5784081398178861e+07  2.3311212023760770e+07  2.3071452900241952e+07  2.2942007968600407e+07  2.6496235742307786e+07  2.7395336987357043e+07  2.7321587132579811e+07  2.6187849897691846e+07  2.7730882070810631e+07  2.5408064842568792e+07  2.3951974923189241e+07  2.3952274736034457e+07  2.3231588930227872e+07  2.7687459115927983e+07  2.7704620647967719e+07  2.7711521923650790e+07  2.6929908951330502e+07  2.7321536790706865e+07  2.7710387513583470e+07  2.7587922613820154e+07  2.5142845400339205e+07  2.7927570056961305e+07  2.7924674416093897e+07  2.4776376347748045e+07  2.3045118418997660e+07  2.4936605536020473e+07  2.7437444834159657e+07  2.4972071806954522e+07  2.5012392189878907e+07  2.7900096266204685e+07  2.4864453263992883e+07  2.6624928854990389e+07  2.3677031580048900e+07  2.4227525361882776e+07  2.4185720823789172e+07  2.4270987594173145e+07  2.7463119144489486e+07  2.4622060456723817e+07  2.4660941187926367e+07  2.4577260433950238e+07  2.4654864055567905e+07  2.4484388426851224e+07  2.3327369413708568e+07  2.3282587385001834e+07  2.4701406641560882e+07  2.4154754826415636e+07  2.5361068494944867e+07  2.5360388125279464e+07  2.7916794933444299e+07  2.5973495382886011e+07  2.5604842134808645e+07  2.4907547028469250e+07  2.4788053533289637e+07  2.4797811809199546e+07  2.4808505819268961e+07  2.4780405176507786e+07  2.4782029700939745e+07  2.4892776306775384e+07  2.4794229089254446e+07  2.4836189987313937e+07  2.4984336137617484e+07  2.4906301601069249e+07  2.4473894567761578e+07  2.4656158454841509e+07  2.3598238759707045e+07  2.3698800027491197e+07  2.3567508646997511e+07  2.3423885803011823e+07  2.3465837111133404e+07  2.3252913192676000e+07  2.3383682156157348e+07  2.3301046281425525e+07  2.3046982304900549e+07  2.3016945227245521e+07  2.3103094941702064e+07  2.3077553404403482e+07  2.3077364547555983e+07  2.3069709077435441e+07  2.3063613962575108e+07  2.3108676136606131e+07  2.3092411705476936e+07  2.3057967225147523e+07  2.3168652752832729e+07  2.3111844903010596e+07  2.3189468769248221e+07  2.3144198830983847e+07  2.3259841647871729e+07  2.3458726183684561e+07  2.3327001496817823e+07  2.3513451971380815e+07  2.3260016289405860e+07  2.3389173322047859e+07  2.3636256707806949e+07  2.5920993450941570e+07  2.5697891116746347e+07  2.5499181139119875e+07  2.5728041437938698e+07  2.6577584529618111e+07  2.7008384933934402e+07  2.6745769991251595e+07  2.6971129944602437e+07  2.4030880345210742e+07  2.3625745082224984e+07  2.3726621585040480e+07  2.3920455300802074e+07  2.2758195682758849e+07  2.2713690912686735e+07  2.2701117746118661e+07  2.2717401633615986e+07  2.2608021650833491e+07  2.2693772392783821e+07  2.4517946887092918e+07  2.4607175018488459e+07  2.4016590896583252e+07  2.4270264585429009e+07  2.4137057470001392e+07  2.6886448336894631e+07  2.6581155964296930e+07  2.4889288592732184e+07  2.4886651277554300e+07  2.5161864418936789e+07  2.4694384987970933e+07  2.5187234180579238e+07  2.5112461360546459e+07  2.5252773574253652e+07  2.5681443025129315e+07  2.5476919844215285e+07  2.3118522267373607e+07  2.3385253905673269e+07  2.3628661722006958e+07  2.3135948479763668e+07  2.3105963805499762e+07  2.2903479120884143e+07  2.3264891069427881e+07  2.2801979232274827e+07  2.2750539485345606e+07  2.3077264231410194e+07  2.3166101507675458e+07  2.6524831566718154e+07  2.7031687060230039e+07  2.6736271821397360e+07  2.7081971456490677e+07  2.7364597981274720e+07  2.6118071994786885e+07  2.5629337344930250e+07  2.6090906158149168e+07  2.5903118504810676e+07  2.3953355875311259e+07  2.4207492598480098e+07  2.4274416408146635e+07  2.3934475484341152e+07  2.6523884086769179e+07  2.6298992839761358e+07  2.6263064215182658e+07  2.6108913919207335e+07  2.2963143542881057e+07  2.2998297781404745e+07  2.4875056094173957e+07  2.4925086524799906e+07  2.4634321364699304e+07  2.6274498242416788e+07  2.6023256989668969e+07  2.6463769764457490e+07  2.6058525006652746e+07  2.4103953589740712e+07  2.3834157209480636e+07  2.3826726330265492e+07  2.3982817699398853e+07  2.3908235556196131e+07  2.4020713614429716e+07  2.3148249178549301e+07  2.2907246577684388e+07  2.2901227426541690e+07  2.2809323875108872e+07  2.3057858875915233e+07  2.3023949218614403e+07  2.3496573972326379e+07  2.3709392241504159e+07  2.3840256340205699e+07  2.3622399327712409e+07  2.3025894433490865e+07  2.3348668805759810e+07  2.3528822410703279e+07  2.3520145948987521e+07  2.3141214383814253e+07  2.3377797609931920e+07  2.4307672049486108e+07  2.4542259816731535e+07  2.4294141128893107e+07  2.4191007149218366e+07  2.2909740589364216e+07  2.3159797267575379e+07  2.2741227116704699e+07  2.3089344261460647e+07  2.2812804144874457e+07  2.3045021849746726e+07  2.2697161770041734e+07  2.2813522481122892e+07  2.2971579917954162e+07  2.3035388098089114e+07  2.2903526854593754e+07  2.5519265377168119e+07  2.5431886879247636e+07  2.5790252975429270e+07  2.5797850595992774e+07  2.6353769624757491e+07  2.3423481177685712e+07  2.3499199807591677e+07  2.6125186461332109e+07  2.5148475845737897e+07  2.4588033210060168e+07  2.4608906074565824e+07  2.5002586800596271e+07  2.6069991959907398e+07  2.5871398031678680e+07  2.4953730385781653e+07  2.4944306886216521e+07  2.4843163809133414e+07  2.4402101826703377e+07  2.2705200172558852e+07  2.2924739788333703e+07  2.2877004695170708e+07  2.4636474340202618e+07  2.5008129282056086e+07  2.6966766744550068e+07  2.7173245296085186e+07  2.6544254567964446e+07  2.6965157620423991e+07  2.6631471946552750e+07  2.6488735980589759e+07  2.6107236202944815e+07  2.6085246425839771e+07  2.4119661235169839e+07  2.3264458266800620e+07  2.4627802727845509e+07  2.5072879890930388e+07  2.2887653679135900e+07  2.2997777514132172e+07  2.3012866829076048e+07  2.3124320798329521e+07  2.3526977219993524e+07  2.4058324325874731e+07  2.3892920619759992e+07  2.3765900892056178e+07  2.4350259188277900e+07  2.4674392788935535e+07  2.4719580226572435e+07  2.4723183860177223e+07  2.4780625900001276e+07  2.5410342961774152e+07  2.5265865672179703e+07  2.4147622068480805e+07  2.3549332622096177e+07  2.3540948633177571e+07  2.3673129513968147e+07  2.3680368942523893e+07  2.3566647809536003e+07  2.3916368710750159e+07  2.4112885475358509e+07  2.3790367252313040e+07  2.6902218772883449e+07  2.4071655552775949e+07  2.3850801147848174e+07  2.5334643256702382e+07  2.5687968297820345e+07  2.6149580378398605e+07  2.5970497112464547e+07  2.3115516476121914e+07  2.3082991648219801e+07  2.2983594533708915e+07  2.4724523683156237e+07  2.3039079235139035e+07  2.4801206627132993e+07  2.3202815709518265e+07  2.2964576744976200e+07  2.4816014812091701e+07  2.3554882653766580e+07  2.5824337510619048e+07  2.2682054238121036e+07  2.2644742157467142e+07  2.2641906076331079e+07  2.2613206011427119e+07  2.2683096173306070e+07  2.5149118103744939e+07  2.3009682343357801e+07  2.3093804653857231e+07  2.3048387254887793e+07  2.6886070201855436e+07  2.4502563010593191e+07  2.4042819161290545e+07  2.4035221204511713e+07  2.4097205989874877e+07  2.2940708922713261e+07  2.6082962546060946e+07  2.6147769355170999e+07  2.3014318875730149e+07  2.3040215621106829e+07  2.3564863112471104e+07  2.3618431060201805e+07  2.3179446478780881e+07  2.4240824673500221e+07  2.4872358892542239e+07  2.5011516364543010e+07  2.4729943886005167e+07  2.5070688745790031e+07  2.2904697595370144e+07  2.2804880740809150e+07  2.2874628554413229e+07  2.2849043213548027e+07  2.6211265843336813e+07  2.2800716669343583e+07  2.2899841685945507e+07  2.3008167602794543e+07  2.3913892545919944e+07  2.3881516987090353e+07  2.3936653449968979e+07  2.3843413946672559e+07  2.2685580813548084e+07  2.2643637537887670e+07  2.2664675617994543e+07  2.3969896466973104e+07  2.6597416882217992e+07  2.6703126808674343e+07  2.6822387332431622e+07  2.4877633010726631e+07  2.6011910145029075e+07  2.3907524086598441e+07  2.3698747539689612e+07  2.3609819868767235e+07  2.3765587319797337e+07  2.5553514358410217e+07  2.5178989326807596e+07  2.5291085350591008e+07  2.2740743586021751e+07  2.2745330554439347e+07  2.2797353287396744e+07  2.4002885524382107e+07  2.4109913814655703e+07  2.4066159389288660e+07  2.3939590727582831e+07  2.5825923949849579e+07  2.3062487051848236e+07  2.3032572104543407e+07  2.3054642714805678e+07  2.4793516583305459e+07  2.4760931064330623e+07  2.4774557363335818e+07  2.3284118835475791e+07  2.3400276073969133e+07  2.3496098509123255e+07  2.2878272393676672e+07  2.3049498666216884e+07  2.3019583511499155e+07  2.4847474221758116e+07  2.4922159332108773e+07  2.4882341643902455e+07  2.4822960927195981e+07  2.4831690369944103e+07  2.4839039348531503e+07  2.4818445510174837e+07  2.3566522265675310e+07  2.3049652330832072e+07  2.3566492147043630e+07  2.5986823452545352e+07  2.3822487471917417e+07  2.3788536600748572e+07  2.2704143210104279e+07  2.2638767349449098e+07  2.2802309199021459e+07  2.2795754923604090e+07  2.2646992545736775e+07  2.2630236153080236e+07  2.4064447854054376e+07  2.3946342618229099e+07  2.4010126566009879e+07  2.5010256571810488e+07  2.5222602167046413e+07  2.3129413747102089e+07  2.3257127723309189e+07  2.2936903660237007e+07  2.3050112587480810e+07  2.3209600375639055e+07  2.2902843837877225e+07  2.2730798756576870e+07  2.2704414648738991e+07  2.3329762707968701e+07  2.6851333847466182e+07  2.3996556196379717e+07  2.4125332046576034e+07  2.3997838907015506e+07  2.6199176398385931e+07  2.6202225847092383e+07  2.6104496463924445e+07  2.3903075798163507e+07  2.4063314796673257e+07  2.3916365768372778e+07  2.3473680844472714e+07  2.4152068508861411e+07  2.4164084955418929e+07  2.2741663979352713e+07  2.2839547411478192e+07  2.5652832212447219e+07  2.5601883200647872e+07  2.5737758580863509e+07  2.2895993652593609e+07  2.3019850677253950e+07  </DataArray> 
</PointData> 
</Piece>
</UnstructuredGrid>
</VTKFile>