<?xml version="1.0"?>
<VTKFile type="UnstructuredGrid"  version="0.1"  >
<UnstructuredGrid>
<Piece  NumberOfPoints="784" NumberOfCells="1320">
<Points>
<DataArray  type="Float64"  NumberOfComponents="3"  format="ascii">266913.131276 586512.314988 0  266738.13716 587762.325998 0  266363.132677 589012.328643 0  266175.641078 590169.601714 0  265666.575631 591040.7699119999 0  264875.64001 591687.766419 0  264900.636161 591845.049083 0  266088.14152 592012.3229499999 0  265561.959259 592661.17101 0  264288.136855 593037.368683 0  263865.194033 593999.8486949999 0  263850.641856 593236.729596 0  263625.634872 592756.525286 0  262689.574249 593299.848918 0  262475.636737 594003.0907310001 0  261934.554452 594340.929792 0  261725.631329 594932.094409 0  261729.256443 595728.498809 0  262138.136044 595012.330523 0  262288.141035 596262.333669 0  261488.994028 597511.480605 0  261234.15567 598316.338928 0  260815.635063 599014.863821 0  261400.643658 599389.7367680001 0  261322.963374 600022.185065 0  261119.455248 600931.061306 0  261607.436504 601293.0629359999 0  260807.446929 602089.899812 0  260025.642878 602988.868697 0  259613.135827 603937.3854499999 0  259050.643123 604100.987861 0  258411.880065 603988.6335979999 0  257764.357469 604449.872569 0  257971.239668 605320.429125 0  258041.396867 605740.635381 0  257188.143339 606987.394312 0  256038.141198 608112.3554550001 0  254788.141633 609087.4026939999 0  253588.140656 609812.362881 0  252338.135706 609737.4048949999 0  251088.138116 609787.404055 0  249963.12851 610287.399466 0  248613.130524 610462.365857 0  247363.132198 610687.407659 0  246113.130532 610837.411551 0  245832.347438 610918.209918 0  245016.946433 610958.5639439999 0  244313.129646 610762.372259 0  244400.622144 611378.093316 0  243939.669208 612460.8930899999 0  242960.649733 611984.892792 0  242170.381438 611919.647351 0  241888.122919 611112.375656 0  241393.380757 610467.6456149999 0  240594.157528 611306.369822 0  240525.621947 610804.648112 0  240363.123632 610512.3745050001 0  239113.123247 610262.374278 0  239813.12126 609037.412459 0  240588.122952 607812.368199 0  241013.119545 606625.9534560001 0  241454.373249 605724.888025 0  242238.120107 604687.3993 0  243088.121248 603462.362766 0  242860.319451 603007.3932640001 0  241563.116617 603812.361344 0  241778.400913 604327.642217 0  242059.837234 604824.879102 0  241475.620201 604923.2402390001 0  241462.182234 605449.881372 0  240906.219606 605674.888222 0  240241.856192 606891.125066 0  239891.734044 607841.012479 0  239048.653431 608724.889805 0  238118.054545 608974.895967 0  238888.111029 607337.406468 0  239738.119992 606212.362729 0  240288.12044 605687.4075229999 0  240380.212307 604729.521696 0  239347.309632 604603.204501 0  238888.112036 604387.408787 0  237913.11173 604687.401386 0  236784.172023 604499.882783 0  236883.408793 603717.08334 0  236154.933927 603595.565605 0  235688.103943 602912.369264 0  235763.108033 601662.366516 0  236363.110805 600412.35884 0  236738.107995 599162.356577 0  236525.607944 598482.2412899999 0  236138.109208 599362.357613 0  235725.063048 600325.4466510001 0  235091.948926 601408.5220979999 0  235188.10921 600312.366344 0  234375.602405 600833.9674270001 0  234663.109308 599912.358011 0  234138.105122 600062.365644 0  233955.307245 599029.561063 0  233338.103791 598387.401556 0  233988.09795 597862.356384 0  235138.101489 596637.3947750001 0  235563.1039 595387.392428 0  236513.103639 594212.356312 0  237163.10684 592987.3929869999 0  238313.103031 591862.3515540001 0  239513.107028 590812.3512640001 0  240638.102135 589787.387271 0  241463.109549 588587.378486 0  242294.489816 587443.735215 0  242913.101099 586512.341804 0  243544.066915 585474.859604 0  243040.448415 585184.975583 0  242438.10214 585337.38015 0  241313.102353 586562.339499 0  240538.107104 587787.382449 0  240114.641085 588588.939407 0  239388.100256 589437.382238 0  238188.104456 590512.346358 0  236938.100507 591362.349798 0  235813.10453 592537.396388 0  234864.502938 593178.7753880001 0  234463.097651 592862.357267 0  235113.0965 591662.3545979999 0  235713.101522 590412.346099 0  235777.688431 589976.7582779999 0  234943.583145 590706.265132 0  234462.482256 591490.2841159999 0  233801.497784 592112.940187 0  233388.099101 591787.394208 0  234013.093099 590437.393065 0  234776.217248 587148.7548100001 0  235163.093726 586562.3486189999 0  235313.098918 585483.229012 0  235250.59732 584662.298153 0  235588.093896 583337.379493 0  236329.432041 582199.858992 0  237188.096234 581462.3349939999 0  237463.088521 580212.335511 0  238350.592558 579057.652616 0  238591.415797 578574.847681 0  238313.094106 577612.328905 0  239229.696732 577695.769664 0  240195.161018 577513.008613 0  240614.996733 577149.8518770001 0  240663.091715 577412.332622 0  240288.092486 578662.334085 0  239942.357258 579508.095811 0  240438.100019 580212.3334220001 0  241338.095553 580387.375355 0  241238.099828 579137.369157 0  241788.097003 577887.370889 0  241983.554649 577241.9220939999 0  242054.178239 576927.8105029999 0  242588.100699 575737.366175 0  243149.324833 574898.583978 0  243695.278626 573919.517981 0  244268.494418 573724.8454239999 0  244995.134063 573930.2767810001 0  245417.314363 573391.601898 0  243450.599125 571859.479773 0  245776.797908 572599.8353060001 0  246779.639852 572973.285167 0  248034.741935 573186.082054 0  249413.10651 573162.3205520001 0  250496.922226 573271.1521899999 0  251613.105126 573237.3551319999 0  252421.824577 572846.032906 0  253256.245022 572580.4733130001 0  253739.471933 571960.9547369999 0  254174.511864 572149.8346569999 0  254484.944333 571684.194807 0  254384.108649 570891.346712 0  254344.002752 570218.26407 0  255025.609604 570829.0294979999 0  255715.005913 570489.264586 0  256218.846343 570774.828355 0  256834.349083 570508.5908 0  257390.092515 570014.308325 0  257624.431042 568493.478911 0  259355.811717 569380.021819 0  260033.372814 569617.066669 0  262679.741751 570320.699974 0  263289.115756 569524.817815 0  263463.114338 570512.301061 0  264638.198419 570687.3443539999 0  265058.220065 571334.378467 0  265447.561421 572077.90485 0  265488.125257 573137.3446020001 0  265131.937715 573963.293593 0  265432.389648 575093.068786 0  265638.122314 576338.029955 0  265750.630817 577371.8281319999 0  265738.570663 578561.9098850001 0  265875.630866 579139.630549 0  266213.129247 579862.311842 0  266563.130472 581112.314509 0  266238.135356 582362.310259 0  265938.12863 583612.320897 0  265738.131342 584762.3210189999 0  266875.638633 585365.358768 0  264018.7239399826 593650.4646671159 0  262236.3944351029 595831.1252656333 0  241846.246678 605206.1436625 0  240200.622106 608424.8903290001 0  240943.4862974102 610939.7757535663 0  236550.6094 599787.3577085 0  238528.1212051503 608102.9081793013 0  244413.4891967989 572609.5960859474 0  236382.0474488751 598808.3067022427 0  235369.601910944 600933.5380148316 0  235413.099011 591037.3503485 0  235446.2251831186 590266.6553871984 0  240475.5921005 578037.3333535 0  240413.173949154 577324.4280286073 0  240574.037899 606283.0066440001 0  263857.9179445 593618.2891454998 0  264153.4303974913 593343.916675058 0  242042.1833925 604946.7714812499 0  241650.3099635 605465.51584375 0  244613.6985165 572229.6575395 0  236631.8579695 598822.2989335 0  235140.029068 600860.444221 0  241767.7287175 604874.0596705 0  242140.15174975 604817.0853906251 0  234781.8558075 600573.1668855001 0  242091.167571125 604881.9284359375 0  234519.3558565 600373.162719 0  254604.8337712102 583989.0014118921 0  250699.5846056537 594617.3297041012 0  250540.4796469513 602258.2940568649 0  248483.7490186612 580334.7345534252 0  258549.2190328319 577893.951823392 0  257067.0067473103 590016.5327808241 0  243285.0921999099 596333.923437875 0  248333.1386145258 589098.0389905117 0  256142.8445072741 595883.3911551933 0  260245.1368072523 583315.2785712298 0  253472.3380211276 578932.2908163272 0  246432.3347504817 599884.5019511909 0  261555.9240922556 588041.186709004 0  247293.1100123104 605823.8307887657 0  246458.2798550911 593168.8646574575 0  252840.0183145193 588226.5564648228 0  249828.2874404451 584740.7888937403 0  255409.5660975206 600458.8956828594 0  260819.9733392385 574219.403683011 0  252584.2262054711 605722.6603825617 0  254049.8830611471 592547.4852571967 0  250015.4356193061 598425.2225922942 0  245872.072249477 577604.9761853142 0  262002.1583249522 579753.4663046852 0  257732.6630933878 586227.970805314 0  250242.5556457866 577017.3316409125 0  244921.6453001869 581816.6358421432 0  256520.3890639471 580904.824006648 0  240779.0970645865 599524.6679555867 0  257100.1829219198 574459.5922545703 0  239912.2630002034 595231.1172704464 0  244703.0875078634 590068.6945953515 0  242549.5490268674 592874.3693043783 0  251586.0465921376 581796.2215047925 0  246643.189997516 596527.447801719 0  251049.7658069622 591057.6752245198 0  253014.5731561695 596998.6601086652 0  238680.2197353724 584542.2309791476 0  259715.365803504 591937.1938619445 0  254097.157218761 575731.4494927844 0  246806.6408589328 586139.0877599345 0  246136.1179750556 602959.471719323 0  253520.7033332401 602835.180253843 0  244125.4295793909 607538.9817227355 0  252546.8895354472 599881.3279113505 0  258289.0983523553 600397.640191779 0  247518.7952199645 583037.3718217331 0  263140.3959879661 582529.2228421422 0  262894.8586894067 585442.3590432997 0  256968.6320599076 593040.7691844478 0  243573.0187527719 600218.2795730785 0  258888.5766127351 595139.7745218446 0  262588.7569809347 576734.8569237856 0  259318.4257992262 580601.2540325444 0  249963.3812725965 607065.7205847671 0  257494.5307999607 583482.5893534871 0  258906.4757205145 572278.8089438241 0  237751.446593475 587300.5805003279 0  255142.4708720699 604956.7580261135 0  258485.4978753244 597756.9250383095 0  255516.7820591553 587791.39641967 0  239758.4692108706 601926.8203218657 0  255873.0092222999 577739.5085867504
[...]
<PointData  Scalars="f_32-0"> 
<DataArray  type="Float64"  Name="f_32-0"  format="ascii">5.4717146752263214e+06  5.5638088448284445e+06  5.6639688419113057e+06  5.7417213670385005e+06  5.7906381912333118e+06  5.8614274414347084e+06  5.8887469044074072e+06  5.9159675383774741e+06  5.9143917240884006e+06  5.9202576871366249e+06  5.9294794516328117e+06  5.9255453868054794e+06  5.9287420550047969e+06  6.0381567269005915e+06  6.1345810093797594e+06  6.2334900994761055e+06  6.3846528279215815e+06  6.5714964363811770e+06  6.5978949957706127e+06  6.6248365225548418e+06  6.7724745793294553e+06  6.8935070905324221e+06  7.0371629022915075e+06  7.1189141040831394e+06  7.1580715430133408e+06  7.2438381135101318e+06  7.2693084230866926e+06  7.3128243027169351e+06  7.4035806803515032e+06  7.4685458455725443e+06  7.4888174059489509e+06  7.5468071339452704e+06  7.6972301636368595e+06  7.8214282772377543e+06  7.8439762501332378e+06  7.9413347184385210e+06  8.0472442829637937e+06  8.1392728500264464e+06  8.1985007807694469e+06  8.2496167325303601e+06  8.3230067559627285e+06  8.3921571300042607e+06  8.4558965669300258e+06  8.5141575481765177e+06  8.5666071506019589e+06  8.5775299563723560e+06  8.6050223605317269e+06  8.6380877625663821e+06  8.6615624735612385e+06  8.6717830665833596e+06  8.6742228987647202e+06  8.6765076579167861e+06  8.6765498907376435e+06  8.6811219143049177e+06  8.6897981133838613e+06  8.6891744728367049e+06  8.6893152035076860e+06  8.6925359597030208e+06  8.6837783268004041e+06  8.6517357477300894e+06  8.6091555018093791e+06  8.5693209079519305e+06  8.4977566925539710e+06  8.3658805393825481e+06  8.3212585195884118e+06  8.3916299279878307e+06  8.4226588347070143e+06  8.4313454091437329e+06  8.4405052966326270e+06  8.4552964180837870e+06  8.4768655336248931e+06  8.5559289152781460e+06  8.5814794224740174e+06  8.5934011531218104e+06  8.5957886344436891e+06  8.5829020020062681e+06  8.5442413656834587e+06  8.4987323359082639e+06  8.4344622075336929e+06  8.4145711334521361e+06  8.4137456986695081e+06  8.4158259352607857e+06  8.4161114531058129e+06  8.4118342673075199e+06  8.4085526847919952e+06  8.4047076042892560e+06  8.3901031227402445e+06  8.3517836232562065e+06  8.2884803254932696e+06  8.2605705541966306e+06  8.2856403131975411e+06  8.2991063641774142e+06  8.3036650348341139e+06  8.2998995001015235e+06  8.3014906245737514e+06  8.2974939566932311e+06  8.2965885537265642e+06  8.2907894476370839e+06  8.2878647096535750e+06  8.2811116663301392e+06  8.2234536726908796e+06  8.1544353975734580e+06  8.0524082255392894e+06  7.9388113481180938e+06  7.7818934530628240e+06  7.5636287576067094e+06  7.2827321266595824e+06  6.9719337891248278e+06  6.6587815473694885e+06  6.3871287453746712e+06  6.0560007271929123e+06  6.0080098722068872e+06  6.1356211195004694e+06  6.4852428623776361e+06  6.7150450218542190e+06  6.8135726969584636e+06  6.9050815248733396e+06  7.0105348780981824e+06  7.0846029649776919e+06  7.1350521538243275e+06  7.1459476862954712e+06  7.1460523093808237e+06  7.1292220584274018e+06  7.0830396935964692e+06  7.0665464232125124e+06  7.1014034964074390e+06  7.1231729559560800e+06  7.1299981316074468e+06  7.1299948082704619e+06  7.1076394828667361e+06  6.9581987493460672e+06  6.9069673955053156e+06  6.8158112735506082e+06  6.7600619113006704e+06  6.6804418742982959e+06  6.5932511735163713e+06  6.4955174318334637e+06  6.4235525356919933e+06  6.4010773981724447e+06  6.4105316500390014e+06  6.4209432177756429e+06  6.4200346512455894e+06  6.4245875501890965e+06  6.4268531794499727e+06  6.4265748598508742e+06  6.4088937853994435e+06  6.3490972963222489e+06  6.1734098033071011e+06  5.7671128213765929e+06  5.4068296019085795e+06  5.1845680993663138e+06  5.0845203186805584e+06  5.0473142634327337e+06  4.9170142883124147e+06  4.8300220198460165e+06  4.7621370670083603e+06  4.7373546402097121e+06  4.6564597998355897e+06  4.5806888606512016e+06  4.6263725078293746e+06  4.5662784713393608e+06  4.4598099183302289e+06  4.2376526522967834e+06  3.9905666066957596e+06  3.8427528487662738e+06  3.7640936204927559e+06  3.7857592967243916e+06  3.8756154573713453e+06  3.9636296315242597e+06  4.0227379898476773e+06  4.1610723568277229e+06  4.2416312470539697e+06  4.2502508107354911e+06  4.2580049292454822e+06  4.3112987384964805e+06  4.3655546836936101e+06  4.4864992495122738e+06  4.6143819633752890e+06  4.6992453576125856e+06  4.7196905691822311e+06  4.7491719416333046e+06  4.8829914666185286e+06  4.9056164060857762e+06  4.9028647828268632e+06  4.9171002837444553e+06  4.9131906497378722e+06  4.8996797512683980e+06  4.8657885956185348e+06  4.8052242455335595e+06  4.7191302924190192e+06  4.6504009070989434e+06  4.6099119963993262e+06  4.5926953333014697e+06  4.6099221264268635e+06  4.6525250946728550e+06  4.7279896611833880e+06  4.8236562080285829e+06  4.9893174675779231e+06  5.2343790267968047e+06  5.4001329811335895e+06  5.9284984644653695e+06  6.6052144494550703e+06  8.5380949973423332e+06  8.6713363767729178e+06  8.6887549383355360e+06  8.3227886023398954e+06  8.5923924479633812e+06  4.6122872988842223e+06  8.2716005964255016e+06  8.3027512270326791e+06  7.1096653294560183e+06  7.0793885732048973e+06  6.4220832298752759e+06  6.4263808533955701e+06  8.5231243391367011e+06  5.9284988775833184e+06  5.9260265308717731e+06  8.5190652061877549e+06  8.5550479624619279e+06  4.6122884305894179e+06  8.2699989532947857e+06  8.3027539255570471e+06  8.4327242297002524e+06  8.5087577863742616e+06  8.3007995732368547e+06  8.5139839525560420e+06  8.3007753101641536e+06  4.2270741357566491e+06  6.7667327447971255e+06  7.8481676817515884e+06  4.3205095220123352e+06  3.6544725520225274e+06  4.9829954500075206e+06  7.7939365942119425e+06  6.0612589049800429e+06  6.5607734110832876e+06  4.4843653495699177e+06  3.7145946469352688e+06  7.8999381056720801e+06  5.3353762689434458e+06  8.3559300452204645e+06  7.0499991416800683e+06  4.8583214704269515e+06  5.0626888489533896e+06  7.2136612894665115e+06  4.4696222995944507e+06  8.0700084133340241e+06  5.9158786935167154e+06  7.4029520747032296e+06  4.5678485429787431e+06  4.1792099558167420e+06  4.3679874390857266e+06  3.7786540831630351e+06  5.2237614481750662e+06  3.9611714819567660e+06  8.2049312021754328e+06  4.0119427437305981e+06  7.9420050712988945e+06  6.7792481088891448e+06  7.4691827762828358e+06  4.3680665291215563e+06  7.5055965033277068e+06  5.9836919589580577e+06  6.8939232017291766e+06  6.5652019013814982e+06  5.7978198140178323e+06  3.5589357297284324e+06  5.7902280462058997e+06  8.2059967659115708e+06  7.7077733116825186e+06  8.5654343556479570e+06  7.3371087059886139e+06  7.2041899488438312e+06  5.0540305341839697e+06  4.6545190121852895e+06  5.1185364964764994e+06  5.8976374245778676e+06  8.1204602070185225e+06  6.4313989259791188e+06  4.3977141658088118e+06  3.9904123015541546e+06  8.2930188728364194e+06  4.2317263180256430e+06  4.5249005336609809e+06  6.8546987287715161e+06  7.8734087774217688e+06  6.8555989679158628e+06  4.2961940569703253e+06  8.3527417501927121e+06  3.5468631611033054e+06  5.7364252501247907e+06  5.9126833561467323e+06  6.6337839760279683e+06  5.0900512536816709e+06  4.1221724222392198e+06  5.5124263015700169e+06  5.0796204351197546e+06  3.9956378506144607e+06  4.1972137873340966e+06  4.8632798515505288e+06  4.9547051650820440e+06  8.5005500034060497e+06  8.1064822391543137e+06  4.5807521740744915e+06  8.4186664993440695e+06  7.8442125860278308e+06  7.7820933917265506e+06  8.1620278819976952e+06  6.3419908686509104e+06  5.6048046902799672e+06  6.8713844046815848e+06  7.4633263153756820e+06  5.3502610221585166e+06  8.1037908030385729e+06  4.3220771271209372e+06  6.5201561702041756e+06  4.7913344808965856e+06  4.1034377197626387e+06  7.0940189949998558e+06  8.0148344829216041e+06  6.6080116363042220e+06  7.4505290520368796e+06  6.3305624540489912e+06  7.7008518242831528e+06  4.0408321407474447e+06  4.6038831313473172e+06  4.6475140166654056e+06  8.1214911339537380e+06  7.1347612635867409e+06  4.5290828842787864e+06  8.1641934448623070e+06  6.2614217536082938e+06  8.2998393315484161e+06  4.6616587595833801e+06  8.5207940007476751e+06  8.5133385170342997e+06  4.9352425747915907e+06  5.8871297131019067e+06  8.5170997345632222e+06  8.5695304528711829e+06  8.2442801328095002e+06  8.2691052090532044e+06  7.0458491198991137e+06  4.1214001526580295e+06  8.2479136632133881e+06  7.8789893077366697e+06  5.0279483353252076e+06  5.8797428938278696e+06  5.7166304283780148e+06  8.5651878899716716e+06  8.5115828086526804e+06  6.2440693911240827e+06  8.3959716086996179e+06  8.4410534952125419e+06  8.4782044282131717e+06  8.5736953453962673e+06  5.7793147305877218e+06  4.4635602651763065e+06  7.0580339388578078e+06  4.3772678792511374e+06  5.8096211745875040e+06  4.5369070071125468e+06  6.9495941208583433e+06  8.6612585008469447e+06  6.7272303335379884e+06  7.0798934448767016e+06  8.2510860813615173e+06  5.9945821103419205e+06  4.6759347152947094e+06  7.0645706287391670e+06  3.6643422521532835e+06  4.7519648285286920e+06  8.2672471359257344e+06  8.2150397168667233e+06  6.3589252778541371e+06  8.6596649284885991e+06  3.8695161768017826e+06  8.3353852374948673e+06  6.8145625674999878e+06  4.8739133771015238e+06  4.1097787312677712e+06  3.8142153887323984e+06  7.4544856981060868e+06  8.3039243015539553e+06  8.2405795066133449e+06  7.1751224209738830e+06  8.5475162122636046e+06  6.4777674768037256e+06  4.5943096063977825e+06  4.5947136810867907e+06  4.5471943564901566e+06  8.5165921040145978e+06  8.5288337714569308e+06  8.5337502054369655e+06  7.8501945527416123e+06  8.1893254708827483e+06  8.5234469786227793e+06  8.4282865627304073e+06  6.7881405293112192e+06  8.6868361906262971e+06  8.6849090075416192e+06  6.1043107298246445e+06  4.5620421032032296e+06  6.3902310475011207e+06  8.3406717492121216e+06  6.1038097387541970e+06  6.5476967386056716e+06  8.6660329490573760e+06  6.2791896182123655e+06  7.5701306661989884e+06  4.9866851144436542e+06  5.0542923701902702e+06  4.9782332379932683e+06  5.1348053215366462e+06  8.2880373897617711e+06  5.8770541850523530e+06  5.9130217959763044e+06  5.8364339234334519e+06  5.9052879784093667e+06  5.7643689582731258e+06  4.8653595884288400e+06  4.7488072565836236e+06  5.8934587274568658e+06  4.9236675063787149e+06  7.1426397822762709e+06  7.1415890220459606e+06  8.6791323951852247e+06  7.0966191645219401e+06  6.7328203943528766e+06  5.9573482419321574e+06  5.8517106462394884e+06  5.9141850251552332e+06  6.0604234581554765e+06  5.9184044815913122e+06  6.0109917248655176e+06  6.3208441740533048e+06  6.0628904298577746e+06  6.2043948502112860e+06  6.5109714702445483e+06  6.3570089446524978e+06  5.4984792620921619e+06  5.8654862709844569e+06  4.1030859404114187e+06  4.2193708575309636e+06  4.0534388646538444e+06  3.9127563708996065e+06  3.9391840769903227e+06  3.7898576144989263e+06  3.8598786011785050e+06  3.7970650951825050e+06  3.7727292653424619e+06  3.8632926804362177e+06  4.6544661205530772e+06  4.6278189403760042e+06  4.6230538722744575e+06  4.5954740008229204e+06  4.6011013402239066e+06  4.5986880494763488e+06  4.5784272887628637e+06  4.5799789588293834e+06  4.6306957555810446e+06  4.5867448811794929e+06  4.6198498528624503e+06  4.6062739420566624e+06  4.6695879096932858e+06  4.7983626184223033e+06  4.7098996794976406e+06  4.1285533496760880e+06  4.1378698890031115e+06  4.1620421635924326e+06  4.2562498235258469e+06  7.1017102816001773e+06  6.8352292891591433e+06  6.6998047822749019e+06  6.9309488600989487e+06  7.6125598525000019e+06  7.9873497775003063e+06  7.8130783221096089e+06  7.9825465243101204e+06  4.6668058038162664e+06  4.1582642269706558e+06  4.1588244154930543e+06  4.4098955084820474e+06  3.8933822940939902e+06  3.7190311712727728e+06  3.7704915242977450e+06  3.7766741449279352e+06  3.5657385637001595e+06  3.8060978909468660e+06  5.4260353275112566e+06  5.4411514714734768e+06  4.5915005872837035e+06  4.9489648892941885e+06  4.9155774789827531e+06  7.8722466499706404e+06  7.6394724507903671e+06  6.0116476120637516e+06  5.9270968661030186e+06  6.3434029455699399e+06  5.7193567080358816e+06  6.3411645815582117e+06  6.2019968013127269e+06  6.2598207504515592e+06  6.6996253530360600e+06  6.5114262010076167e+06  4.2517684788146606e+06  4.5587915561231188e+06  4.8052766831383072e+06  4.2272305906310473e+06  3.6583816895268620e+06  3.8366113487621164e+06  4.0392222761802259e+06  3.5039115260015954e+06  3.5982592256222912e+06  3.9394131211308506e+06  3.8391751130451937e+06  7.6677623943282170e+06  8.0612439417768139e+06  7.8410300105345920e+06  8.0912254979620157e+06  8.2883537034282126e+06  7.2925673588432493e+06  6.8347269462587610e+06  7.2587069971918501e+06  7.0901335199773367e+06  4.4967885466961069e+06  4.9223796520617660e+06  5.1077621483966652e+06  4.5252258203006042e+06  7.4645158703111727e+06  7.2395078535754308e+06  7.2020585740896398e+06  7.0240980481096394e+06  4.2322334633521819e+06  4.4081949224567320e+06  5.9218956686002407e+06  5.8509694886923973e+06  5.5152714967277739e+06  7.4516000540313721e+06  7.1466995987671800e+06  7.6000470882061431e+06  7.2521240786534538e+06  4.8046123832058478e+06  4.3735728952655522e+06  4.3166587905311380e+06  4.5538088431980917e+06  4.5082645651847813e+06  4.6937737872530110e+06  4.3714225057003601e+06  4.2432097974945260e+06  4.0320583839578270e+06  4.0428968069718247e+06  4.3593739906096421e+06  4.3782356463695075e+06  4.2894334084734414e+06  4.2328758329555914e+06  4.6312722928381227e+06  4.1131349910929347e+06  3.5401388496402320e+06  3.8362929056888227e+06  3.9582523946874007e+06  3.9411910383209381e+06  3.6223925478343870e+06  3.8040079847986163e+06  5.1000034639916597e+06  5.5944747420602171e+06  5.1337557726757657e+06  4.9006401951786550e+06  3.9557431841607559e+06  4.1222353264037757e+06  3.7053889176026452e+06  4.0256318670797991e+06  3.7498427316789590e+06  4.2889930139108961e+06  3.6770463047924335e+06  3.9960396290568910e+06  4.0724916524889842e+06  4.2132694760466954e+06  3.9085050689633409e+06  6.6907104707420925e+06  6.5594150585013125e+06  6.9604142436484955e+06  6.9423033070802325e+06  7.4583409173072772e+06  4.2327929282302838e+06  4.1890138308796496e+06  7.3085962972753551e+06  6.3296390587492576e+06  5.5373645085591348e+06  5.6239585110245403e+06  6.1202232225735215e+06  7.1060863252635030e+06  6.8687733235645304e+06  6.4472017224937445e+06  6.4345387006680267e+06  5.8156658045219239e+06  5.3800172702310402e+06  3.5331669552002568e+06  3.6012238322468232e+06  3.6729297275867816e+06  5.6098258376506753e+06  6.0606868569439426e+06  8.0139097264850568e+06  8.1566173302652659e+06  7.5221824927494256e+06  7.9221137569574565e+06  7.5709243448226657e+06  7.5772683787203012e+06  7.0658557160452195e+06  7.0256121678465474e+06  4.7612656703081699e+06  4.5617835190036232e+06  5.4473846297894204e+06  6.0915488304535104e+06  4.2240288404628634e+06  4.4511947984891282e+06  4.4925438906441685e+06  4.1633678287439970e+06  4.4933125918360492e+06  4.6382537038203627e+06  4.5138877277322738e+06  4.2334204595324351e+06  5.4266414192597037e+06  5.8253636793485144e+06  5.9514767530507231e+06  5.9960628075273130e+06  6.1037938995873816e+06  6.6183201237792941e+06  6.4454357818559790e+06  4.8554836743516997e+06  4.3409297554713069e+06  3.9977259485623147e+06  4.3073483931897385e+06  4.1355926714078714e+06  4.0217168134404109e+06  4.9053301777220294e+06  4.9089821058854191e+06  4.4724409622018002e+06  7.9525452278736671e+06  4.8026527168426672e+06  4.3087835449128440e+06  6.4673995736831771e+06  6.8786810172960712e+06  7.2986225023397692e+06  7.1156054724705135e+06  4.5268239923330005e+06  4.6009842707875175e+06  3.9656504506925177e+06  5.8815805797568792e+06  4.5309001781293740e+06  6.1368348297341168e+06  3.7050092752673938e+06  3.7158190640138378e+06  6.1830054320305996e+06  4.1450569540820755e+06  7.0185099894265654e+06  3.7593627687784084e+06  3.6452413580628647e+06  3.6753555201906692e+06  3.6001484706222545e+06  3.7682649483984900e+06  6.2696698932444146e+06  3.6675719815794136e+06  3.8720871666998225e+06  3.7691570618744944e+06  7.9561905990970153e+06  5.4483754238015972e+06  4.6666902892346298e+06  4.6787743392472388e+06  4.8085742248155130e+06  4.2392050927060246e+06  7.2553396290174201e+06  7.3277198511321833e+06  4.1781124533149744e+06  4.2607333112551980e+06  4.2018390536249671e+06  4.1926288372612335e+06  3.6391052560747871e+06  4.9824026642058846e+06  5.9924758387729041e+06  6.1625743098539719e+06  5.7966991783823660e+06  6.2247578191740736e+06  3.5142229620433529e+06  3.6405186817735611e+06  3.5763039558603098e+06  3.6111424263396822e+06  7.1975542682572063e+06  3.8797621062792079e+06  3.9689033811262762e+06  4.0802368300174191e+06  4.4254905843424480e+06  4.3688318166768169e+06  4.4473116189229228e+06  4.3581989227071684e+06  3.5646339935120433e+06  3.5709432177372868e+06  3.5365120689844252e+06  4.7278169354662299e+06  7.7244487401004639e+06  7.8114183763719797e+06  7.9027607320847260e+06  6.3044885004031770e+06  6.9564083412760301e+06  4.5412081185537567e+06  4.1187553653561082e+06  4.0324451814076658e+06  4.1985167273714133e+06  6.7448283982887743e+06  6.2684295173887135e+06  6.4009907478055097e+06  3.9093355610714070e+06  3.9181879844896779e+06  4.0012314567034827e+06  4.5675746310895849e+06  4.7454357420414481e+06  4.6528649306363603e+06  4.4430171682775207e+06  7.0090161963721663e+06  4.5543068423836716e+06  4.4895135192416850e+06  4.5285643886101609e+06  6.0990424839103362e+06  6.0451337281025080e+06  6.0647733428780437e+06  3.7347819760913122e+06  3.8334582545008250e+06  3.9412448953662962e+06  3.7810058651252012e+06  4.5713390814423338e+06  4.5086565911556249e+06  6.2395767210881738e+06  6.3929085290106693e+06  6.3122581282089557e+06  6.1934229555563712e+06  6.2088826694085626e+06  6.2287494348679194e+06  6.1696026458573118e+06  4.0368922893558019e+06  4.5583777308104513e+06  4.1137822637358005e+06  7.1770419496816266e+06  4.2733227871358935e+06  4.2215021266440954e+06  3.8209185086124544e+06  3.6112872818711065e+06  3.9048609185568094e+06  3.8514901628477909e+06  3.5982204768430376e+06  3.5953445344451526e+06  4.7239045895653404e+06  4.5277481338102780e+06  4.7082609146453869e+06  6.1692667969811680e+06  6.3352308255549641e+06  4.2995184303781753e+06  4.4457901887756921e+06  3.5474960896255812e+06  3.5666853917084490e+06  3.9399916237107720e+06  3.4945196636830503e+06  3.6496124930168223e+06  3.5309285336480564e+06  4.0145616533956351e+06  7.9294833378299698e+06  4.5496261087402217e+06  4.7633287998602856e+06  4.6600893436292438e+06  7.1184464830296971e+06  7.1478815114923492e+06  7.0315168103379691e+06  4.4257717132852469e+06  4.6962051403178517e+06  4.4233144905294226e+06  3.9062784963458413e+06  4.8136408392582498e+06  4.8661510591959115e+06  3.6135801508814981e+06  3.7071350839513191e+06  6.8273638136571813e+06  6.7851585718017165e+06  6.9189270741145005e+06  3.6311314207456307e+06  4.4945649169345275e+06  </DataArray> 
</PointData> 
</Piece>
</UnstructuredGrid>
</VTKFile>