<?xml version="1.0"?>
<VTKFile type="UnstructuredGrid"  version="0.1"  >
<UnstructuredGrid>
<Piece  NumberOfPoints="784" NumberOfCells="1320">
<Points>
<DataArray  type="Float64"  NumberOfComponents="3"  format="ascii">266913.131276 586512.314988 0  266738.13716 587762.325998 0  266363.132677 589012.328643 0  266175.641078 590169.601714 0  265666.575631 591040.7699119999 0  264875.64001 591687.766419 0  264900.636161 591845.049083 0  266088.14152 592012.3229499999 0  265561.959259 592661.17101 0  264288.136855 593037.368683 0  263865.194033 593999.8486949999 0  263850.641856 593236.729596 0  263625.634872 592756.525286 0  262689.574249 593299.848918 0  262475.636737 594003.0907310001 0  261934.554452 594340.929792 0  261725.631329 594932.094409 0  261729.256443 595728.498809 0  262138.136044 595012.330523 0  262288.141035 596262.333669 0  261488.994028 597511.480605 0  261234.15567 598316.338928 0  260815.635063 599014.863821 0  261400.643658 599389.7367680001 0  261322.963374 600022.185065 0  261119.455248 600931.061306 0  261607.436504 601293.0629359999 0  260807.446929 602089.899812 0  260025.642878 602988.868697 0  259613.135827 603937.3854499999 0  259050.643123 604100.987861 0  258411.880065 603988.6335979999 0  257764.357469 604449.872569 0  257971.239668 605320.429125 0  258041.396867 605740.635381 0  257188.143339 606987.394312 0  256038.141198 608112.3554550001 0  254788.141633 609087.4026939999 0  253588.140656 609812.362881 0  252338.135706 609737.4048949999 0  251088.138116 609787.404055 0  249963.12851 610287.399466 0  248613.130524 610462.365857 0  247363.132198 610687.407659 0  246113.130532 610837.411551 0  245832.347438 610918.209918 0  245016.946433 610958.5639439999 0  244313.129646 610762.372259 0  244400.622144 611378.093316 0  243939.669208 612460.8930899999 0  242960.649733 611984.892792 0  242170.381438 611919.647351 0  241888.122919 611112.375656 0  241393.380757 610467.6456149999 0  240594.157528 611306.369822 0  240525.621947 610804.648112 0  240363.123632 610512.3745050001 0  239113.123247 610262.374278 0  239813.12126 609037.412459 0  240588.122952 607812.368199 0  241013.119545 606625.9534560001 0  241454.373249 605724.888025 0  242238.120107 604687.3993 0  243088.121248 603462.362766 0  242860.319451 603007.3932640001 0  241563.116617 603812.361344 0  241778.400913 604327.642217 0  242059.837234 604824.879102 0  241475.620201 604923.2402390001 0  241462.182234 605449.881372 0  240906.219606 605674.888222 0  240241.856192 606891.125066 0  239891.734044 607841.012479 0  239048.653431 608724.889805 0  238118.054545 608974.895967 0  238888.111029 607337.406468 0  239738.119992 606212.362729 0  240288.12044 605687.4075229999 0  240380.212307 604729.521696 0  239347.309632 604603.204501 0  238888.112036 604387.408787 0  237913.11173 604687.401386 0  236784.172023 604499.882783 0  236883.408793 603717.08334 0  236154.933927 603595.565605 0  235688.103943 602912.369264 0  235763.108033 601662.366516 0  236363.110805 600412.35884 0  236738.107995 599162.356577 0  236525.607944 598482.2412899999 0  236138.109208 599362.357613 0  235725.063048 600325.4466510001 0  235091.948926 601408.5220979999 0  235188.10921 600312.366344 0  234375.602405 600833.9674270001 0  234663.109308 599912.358011 0  234138.105122 600062.365644 0  233955.307245 599029.561063 0  233338.103791 598387.401556 0  233988.09795 597862.356384 0  235138.101489 596637.3947750001 0  235563.1039 595387.392428 0  236513.103639 594212.356312 0  237163.10684 592987.3929869999 0  238313.103031 591862.3515540001 0  239513.107028 590812.3512640001 0  240638.102135 589787.387271 0  241463.109549 588587.378486 0  242294.489816 587443.735215 0  242913.101099 586512.341804 0  243544.066915 585474.859604 0  243040.448415 585184.975583 0  242438.10214 585337.38015 0  241313.102353 586562.339499 0  240538.107104 587787.382449 0  240114.641085 588588.939407 0  239388.100256 589437.382238 0  238188.104456 590512.346358 0  236938.100507 591362.349798 0  235813.10453 592537.396388 0  234864.502938 593178.7753880001 0  234463.097651 592862.357267 0  235113.0965 591662.3545979999 0  235713.101522 590412.346099 0  235777.688431 589976.7582779999 0  234943.583145 590706.265132 0  234462.482256 591490.2841159999 0  233801.497784 592112.940187 0  233388.099101 591787.394208 0  234013.093099 590437.393065 0  234776.217248 587148.7548100001 0  235163.093726 586562.3486189999 0  235313.098918 585483.229012 0  235250.59732 584662.298153 0  235588.093896 583337.379493 0  236329.432041 582199.858992 0  237188.096234 581462.3349939999 0  237463.088521 580212.335511 0  238350.592558 579057.652616 0  238591.415797 578574.847681 0  238313.094106 577612.328905 0  239229.696732 577695.769664 0  240195.161018 577513.008613 0  240614.996733 577149.8518770001 0  240663.091715 577412.332622 0  240288.092486 578662.334085 0  239942.357258 579508.095811 0  240438.100019 580212.3334220001 0  241338.095553 580387.375355 0  241238.099828 579137.369157 0  241788.097003 577887.370889 0  241983.554649 577241.9220939999 0  242054.178239 576927.8105029999 0  242588.100699 575737.366175 0  243149.324833 574898.583978 0  243695.278626 573919.517981 0  244268.494418 573724.8454239999 0  244995.134063 573930.2767810001 0  245417.314363 573391.601898 0  243450.599125 571859.479773 0  245776.797908 572599.8353060001 0  246779.639852 572973.285167 0  248034.741935 573186.082054 0  249413.10651 573162.3205520001 0  250496.922226 573271.1521899999 0  251613.105126 573237.3551319999 0  252421.824577 572846.032906 0  253256.245022 572580.4733130001 0  253739.471933 571960.9547369999 0  254174.511864 572149.8346569999 0  254484.944333 571684.194807 0  254384.108649 570891.346712 0  254344.002752 570218.26407 0  255025.609604 570829.0294979999 0  255715.005913 570489.264586 0  256218.846343 570774.828355 0  256834.349083 570508.5908 0  257390.092515 570014.308325 0  257624.431042 568493.478911 0  259355.811717 569380.021819 0  260033.372814 569617.066669 0  262679.741751 570320.699974 0  263289.115756 569524.817815 0  263463.114338 570512.301061 0  264638.198419 570687.3443539999 0  265058.220065 571334.378467 0  265447.561421 572077.90485 0  265488.125257 573137.3446020001 0  265131.937715 573963.293593 0  265432.389648 575093.068786 0  265638.122314 576338.029955 0  265750.630817 577371.8281319999 0  265738.570663 578561.9098850001 0  265875.630866 579139.630549 0  266213.129247 579862.311842 0  266563.130472 581112.314509 0  266238.135356 582362.310259 0  265938.12863 583612.320897 0  265738.131342 584762.3210189999 0  266875.638633 585365.358768 0  264018.7239399826 593650.4646671159 0  262236.3944351029 595831.1252656333 0  241846.246678 605206.1436625 0  240200.622106 608424.8903290001 0  240943.4862974102 610939.7757535663 0  236550.6094 599787.3577085 0  238528.1212051503 608102.9081793013 0  244413.4891967989 572609.5960859474 0  236382.0474488751 598808.3067022427 0  235369.601910944 600933.5380148316 0  235413.099011 591037.3503485 0  235446.2251831186 590266.6553871984 0  240475.5921005 578037.3333535 0  240413.173949154 577324.4280286073 0  240574.037899 606283.0066440001 0  263857.9179445 593618.2891454998 0  264153.4303974913 593343.916675058 0  242042.1833925 604946.7714812499 0  241650.3099635 605465.51584375 0  244613.6985165 572229.6575395 0  236631.8579695 598822.2989335 0  235140.029068 600860.444221 0  241767.7287175 604874.0596705 0  242140.15174975 604817.0853906251 0  234781.8558075 600573.1668855001 0  242091.167571125 604881.9284359375 0  234519.3558565 600373.162719 0  254604.8337712102 583989.0014118921 0  250699.5846056537 594617.3297041012 0  250540.4796469513 602258.2940568649 0  248483.7490186612 580334.7345534252 0  258549.2190328319 577893.951823392 0  257067.0067473103 590016.5327808241 0  243285.0921999099 596333.923437875 0  248333.1386145258 589098.0389905117 0  256142.8445072741 595883.3911551933 0  260245.1368072523 583315.2785712298 0  253472.3380211276 578932.2908163272 0  246432.3347504817 599884.5019511909 0  261555.9240922556 588041.186709004 0  247293.1100123104 605823.8307887657 0  246458.2798550911 593168.8646574575 0  252840.0183145193 588226.5564648228 0  249828.2874404451 584740.7888937403 0  255409.5660975206 600458.8956828594 0  260819.9733392385 574219.403683011 0  252584.2262054711 605722.6603825617 0  254049.8830611471 592547.4852571967 0  250015.4356193061 598425.2225922942 0  245872.072249477 577604.9761853142 0  262002.1583249522 579753.4663046852 0  257732.6630933878 586227.970805314 0  250242.5556457866 577017.3316409125 0  244921.6453001869 581816.6358421432 0  256520.3890639471 580904.824006648 0  240779.0970645865 599524.6679555867 0  257100.1829219198 574459.5922545703 0  239912.2630002034 595231.1172704464 0  244703.0875078634 590068.6945953515 0  242549.5490268674 592874.3693043783 0  251586.0465921376 581796.2215047925 0  246643.189997516 596527.447801719 0  251049.7658069622 591057.6752245198 0  253014.5731561695 596998.6601086652 0  238680.2197353724 584542.2309791476 0  259715.365803504 591937.1938619445 0  254097.157218761 575731.4494927844 0  246806.6408589328 586139.0877599345 0  246136.1179750556 602959.471719323 0  253520.7033332401 602835.180253843 0  244125.4295793909 607538.9817227355 0  252546.8895354472 599881.3279113505 0  258289.0983523553 600397.640191779 0  247518.7952199645 583037.3718217331 0  263140.3959879661 582529.2228421422 0  262894.8586894067 585442.3590432997 0  256968.6320599076 593040.7691844478 0  243573.0187527719 600218.2795730785 0  258888.5766127351 595139.7745218446 0  262588.7569809347 576734.8569237856 0  259318.4257992262 580601.2540325444 0  249963.3812725965 607065.7205847671 0  257494.5307999607 583482.5893534871 0  258906.4757205145 572278.8089438241 0  237751.446593475 587300.5805003279 0  255142.4708720699 604956.7580261135 0  258485.4978753244 597756.9250383095 0  255516.7820591553 587791.39641967 0  239758.4692108706 601926.8203218657 0  255873.0092222999 577739.5085867504
[...]
<PointData  Scalars="f_32-0"> 
<DataArray  type="Float64"  Name="f_32-0"  format="ascii">2.4414779728780683e+07  2.4516871023558687e+07  2.4638039054588776e+07  2.4737606371269401e+07  2.4805951079543479e+07  2.4907535832101263e+07  2.4941622156844601e+07  2.4968034158006936e+07  2.4968265334947973e+07  2.4991512204652064e+07  2.5002554807689879e+07  2.5000471753363736e+07  2.5021659715828657e+07  2.5212709362072930e+07  2.5352577869110264e+07  2.5488865273829814e+07  2.5688007528334871e+07  2.5925599625676531e+07  2.5956343508474842e+07  2.5992874773330744e+07  2.6189204141585350e+07  2.6349091964648612e+07  2.6537048532508615e+07  2.6641642062373620e+07  2.6692022794200733e+07  2.6801619935362037e+07  2.6833743139950737e+07  2.6889992728331883e+07  2.7004848227875479e+07  2.7085447618539974e+07  2.7110554720793709e+07  2.7181675673465725e+07  2.7362207350930765e+07  2.7510243870816272e+07  2.7537148231617507e+07  2.7653406674888209e+07  2.7780641833067432e+07  2.7892076296838231e+07  2.7964113117966622e+07  2.8026170532425880e+07  2.8117007192017209e+07  2.8204542018519066e+07  2.8287101469294336e+07  2.8364367948753417e+07  2.8435545275672097e+07  2.8450565054826394e+07  2.8488663557702940e+07  2.8535133190971870e+07  2.8568708540544797e+07  2.8583442446563620e+07  2.8586816946233168e+07  2.8589983724577799e+07  2.8589717045007262e+07  2.8595741654564463e+07  2.8608240167023052e+07  2.8607301116968520e+07  2.8607426882668503e+07  2.8612049847916864e+07  2.8598990467212260e+07  2.8551304105805784e+07  2.8488128484909438e+07  2.8429360279341836e+07  2.8324884746957999e+07  2.8136392845724307e+07  2.8077226584967986e+07  2.8189507658305146e+07  2.8235901847083043e+07  2.8248742534970317e+07  2.8262270696874108e+07  2.8283946693642322e+07  2.8315251672234949e+07  2.8429894326194990e+07  2.8467054995130897e+07  2.8484461708190735e+07  2.8487959611535460e+07  2.8469133382431835e+07  2.8412922105917968e+07  2.8346940577176612e+07  2.8254679715452023e+07  2.8229032844864741e+07  2.8229622465665583e+07  2.8235148234093849e+07  2.8236600514090899e+07  2.8231179544724349e+07  2.8227453808273327e+07  2.8222432431081176e+07  2.8202253051213682e+07  2.8148942651538670e+07  2.8063330702580597e+07  2.8031248979301378e+07  2.8074188050588410e+07  2.8095639382630106e+07  2.8102782383890521e+07  2.8096940981139131e+07  2.8099523075445667e+07  2.8093370906881154e+07  2.8092091127892509e+07  2.8083360171348799e+07  2.8079033003679127e+07  2.8068746680996124e+07  2.7982557569424283e+07  2.7882263771129549e+07  2.7735792608404957e+07  2.7574548113867540e+07  2.7354624392792489e+07  2.7057433851358294e+07  2.6694331304827064e+07  2.6317770481323928e+07  2.5962513216496311e+07  2.5665877069875013e+07  2.5286852564136978e+07  2.5130418739886660e+07  2.5125863505242828e+07  2.5290344357865501e+07  2.5443399237107709e+07  2.5512445403149329e+07  2.5576958999026243e+07  2.5651797313425206e+07  2.5705136873795263e+07  2.5742307536166441e+07  2.5750569746568598e+07  2.5750651450591542e+07  2.5737957874165289e+07  2.5704128829418268e+07  2.5692389634195026e+07  2.5718056729654361e+07  2.5734182000534277e+07  2.5739319598736543e+07  2.5739326783724714e+07  2.5722666803200155e+07  2.5616706449739706e+07  2.5581583645029034e+07  2.5520627733177751e+07  2.5484404037828006e+07  2.5433956873728719e+07  2.5380588604075558e+07  2.5323479719870020e+07  2.5284628801496051e+07  2.5274728248034086e+07  2.5281246443638109e+07  2.5287912764492210e+07  2.5287330673284620e+07  2.5290012081140317e+07  2.5291354889161725e+07  2.5291190066230960e+07  2.5280577360379908e+07  2.5244941141903684e+07  2.5145829406887084e+07  2.4935191027916405e+07  2.4758919349263214e+07  2.4647497831886023e+07  2.4596199325173367e+07  2.4576815772713020e+07  2.4507596121663984e+07  2.4460400568275880e+07  2.4423141933110554e+07  2.4410468817357447e+07  2.4369967297402747e+07  2.4326505655675862e+07  2.4331666986873709e+07  2.4315566828660876e+07  2.4274214534344289e+07  2.4177469222651403e+07  2.4050659952706702e+07  2.3942195173907887e+07  2.3816581802266896e+07  2.3735163445586801e+07  2.3679046002640411e+07  2.3655141946195923e+07  2.3646556782419704e+07  2.3636503052268196e+07  2.3635014673482668e+07  2.3635064832431607e+07  2.3634943098467965e+07  2.3636093871468164e+07  2.3638942225970484e+07  2.3649303653564811e+07  2.3665599512921836e+07  2.3681171022404373e+07  2.3678325154369302e+07  2.3679444350062080e+07  2.3686986079230972e+07  2.3690357117720477e+07  2.3687289406066466e+07  2.3682996932475958e+07  2.3678223987005085e+07  2.3669727815723166e+07  2.3654397821819987e+07  2.3629846097694177e+07  2.3594238009679735e+07  2.3570856200211268e+07  2.3565884014530417e+07  2.3586480352267176e+07  2.3613351320531026e+07  2.3655686371337645e+07  2.3726432338780232e+07  2.3821189008251224e+07  2.3974550802288260e+07  2.4194768331400249e+07  2.4342597285087664e+07  2.5001905501773376e+07  2.5967103454582997e+07  2.8383604617428150e+07  2.8580457129552539e+07  2.8606713169908520e+07  2.8109131251283802e+07  2.8482987558101177e+07  2.4328357898634810e+07  2.8051190486466173e+07  2.8101355091094267e+07  2.5723501635099243e+07  2.5701887285899699e+07  2.5288510341065057e+07  2.5291075349921599e+07  2.8382287523937076e+07  2.5001892236517008e+07  2.5000048982017253e+07  2.8355850211375363e+07  2.8408411381099664e+07  2.4328359642119348e+07  2.8039953354553606e+07  2.8101358835507564e+07  2.8250792638846364e+07  2.8340856803383019e+07  2.8098437010378528e+07  2.8348455460345339e+07  2.8098400924182586e+07  2.3834913563218515e+07  2.6067562110278651e+07  2.7479294827932242e+07  2.4260111983550396e+07  2.3498850843717363e+07  2.4501631606185712e+07  2.7339575313254304e+07  2.5338143055268995e+07  2.6012991734294828e+07  2.3777502025456645e+07  2.3756113724896241e+07  2.7471800101716079e+07  2.4447038371764675e+07  2.8134676588114370e+07  2.6371179391841576e+07  2.4381753542606086e+07  2.4547486623271614e+07  2.6863614815883651e+07  2.3594152476653036e+07  2.7796868757305004e+07  2.5315611473523427e+07  2.6828768593207601e+07  2.4373511326806512e+07  2.3545192756191302e+07  2.3853505737462860e+07  2.3996312314170998e+07  2.4695086232615676e+07  2.3633508281954382e+07  2.7925652003689036e+07  2.3573525677316040e+07  2.7568087784065679e+07  2.6094239787924141e+07  2.6916820283157811e+07  2.4093255700057413e+07  2.6937307692878991e+07  2.5232928948759809e+07  2.6349379666609418e+07  2.5348889289182898e+07  2.5075955144587930e+07  2.3643331210664213e+07  2.5139629514801648e+07  2.7906899259604257e+07  2.7372532870587282e+07  2.8426998802845646e+07  2.6917729457568388e+07  2.6782510163437236e+07  2.4612697976388369e+07  2.3799854836850509e+07  2.4164048614104442e+07  2.5312307356911741e+07  2.7788572121904988e+07  2.5806449669631921e+07  2.3543050730621602e+07  2.3548527381148722e+07  2.8069163132765200e+07  2.3702892699953672e+07  2.3634688453074079e+07  2.5542924232579716e+07  2.7570760011579473e+07  2.6339805190442167e+07  2.4014511659245908e+07  2.8140037175401717e+07  2.3568808162739702e+07  2.4861562075036101e+07  2.5002096862580631e+07  2.5880377225385338e+07  2.4610904094899200e+07  2.3822325900034815e+07  2.4506469627216831e+07  2.4623112802183475e+07  2.4027436529887728e+07  2.4197366706272483e+07  2.4057130693641640e+07  2.4281478849329427e+07  2.8341077662775602e+07  2.7820056156497009e+07  2.4153740245447166e+07  2.8212777614882026e+07  2.7398820454555567e+07  2.7336147882130943e+07  2.7878859087252498e+07  2.5225842789929796e+07  2.4964369491865702e+07  2.6447514519609287e+07  2.7101386613691960e+07  2.4730464444803994e+07  2.7785020390989184e+07  2.3976281858891588e+07  2.5891191279569130e+07  2.3654530537863165e+07  2.4191435405428011e+07  2.6414815377325751e+07  2.7658162095042612e+07  2.5886434762167487e+07  2.6877989278080840e+07  2.5634550256564047e+07  2.7238407327639420e+07  2.3522314266885761e+07  2.4404062533304662e+07  2.4341321468534630e+07  2.7830966299696557e+07  2.6486660385925360e+07  2.3640752115605924e+07  2.7919662336892273e+07  2.5563869919785365e+07  2.8071396641751342e+07  2.3601126833158221e+07  2.8359368486601450e+07  2.8347726713411167e+07  2.4527718228579171e+07  2.4957735656056684e+07  2.8353041549950127e+07  2.8438006651169162e+07  2.7998736011176139e+07  2.8049719280208863e+07  2.5678096105051640e+07  2.3615622591603529e+07  2.7965428264969543e+07  2.7578972177784123e+07  2.4568791549760200e+07  2.4937125302430563e+07  2.4747350732341219e+07  2.8423521296529714e+07  2.8344977123485185e+07  2.5545046587913614e+07  2.8201630366530288e+07  2.8243122103036106e+07  2.8296642605607565e+07  2.8444907259572946e+07  2.5024113157325562e+07  2.4290236466761462e+07  2.5685965613131590e+07  2.3630609092421606e+07  2.4857835446341060e+07  2.3590173805353776e+07  2.5610098047881823e+07  2.8566018391428228e+07  2.5460709591624595e+07  2.5702453635064550e+07  2.8012364718986221e+07  2.5055575406740069e+07  2.3666464716576256e+07  2.5691306031564038e+07  2.3734408639317550e+07  2.4421204033339795e+07  2.8045515525860302e+07  2.7967836725909881e+07  2.5246820585933603e+07  2.8564884561076153e+07  2.4018818106290083e+07  2.8124730023391657e+07  2.6256555452521816e+07  2.3666500869850460e+07  2.3630614952807721e+07  2.3629327005646907e+07  2.7070084718237095e+07  2.8047575429283772e+07  2.7960897942856703e+07  2.6721752570441779e+07  2.8397454826439474e+07  2.5821775764455453e+07  2.4324341126618247e+07  2.4324203483468629e+07  2.3652314932498585e+07  2.8352254424460053e+07  2.8370085286338326e+07  2.8377285573594343e+07  2.7544601740317777e+07  2.7924186666744813e+07  2.8375528025002107e+07  2.8247525787243467e+07  2.5495224306019828e+07  2.8603875353216667e+07  2.8600793948141549e+07  2.5100679719643287e+07  2.3558520041350696e+07  2.5268908759326786e+07  2.8098767999555927e+07  2.5322961074105553e+07  2.5348879637597226e+07  2.8574978928027179e+07  2.5169216031755801e+07  2.7214757367552441e+07  2.4006007515660506e+07  2.4580938645721916e+07  2.4540378731533241e+07  2.4623290559330419e+07  2.8078505299693033e+07  2.4929706056618545e+07  2.4972639754166052e+07  2.4880311479404658e+07  2.4965912062816933e+07  2.4778783045632225e+07  2.3678063002907306e+07  2.3664842141010445e+07  2.5017669713262189e+07  2.4513578183506779e+07  2.5748045932932343e+07  2.5747251834692199e+07  2.8592493567656770e+07  2.6459884416048720e+07  2.6047075524319123e+07  2.5262589552603040e+07  2.5126969656596925e+07  2.5127228000726186e+07  2.5115251552529916e+07  2.5103706762547247e+07  2.5088676084934797e+07  2.5196971020312715e+07  2.5096126729130995e+07  2.5132574106812794e+07  2.5305154377658203e+07  2.5210877155521747e+07  2.4810617547569223e+07  2.4981608674506605e+07  2.4112805245395314e+07  2.4182659131418623e+07  2.4097528649980273e+07  2.3999693085443944e+07  2.4032339659729909e+07  2.3880488178845558e+07  2.3979009578054845e+07  2.3922848428913862e+07  2.3710009091315545e+07  2.3659590861911822e+07  2.3574841981893212e+07  2.3566399991231106e+07  2.3566423387465887e+07  2.3571259251664810e+07  2.3563585335007321e+07  2.3598697938341193e+07  2.3590679410358045e+07  2.3565699625045650e+07  2.3634906765537605e+07  2.3602536927128863e+07  2.3650372473754175e+07  2.3621570978370544e+07  2.3693801561430410e+07  2.3835446902401797e+07  2.3739316860616963e+07  2.3741281954521783e+07  2.3735603978461064e+07  2.3726956152392313e+07  2.3890602798265185e+07  2.6436413072686277e+07  2.6193278008823190e+07  2.5969257922020350e+07  2.6228509702400472e+07  2.7208611936575714e+07  2.7662287680380695e+07  2.7405656031709045e+07  2.7635126660192933e+07  2.4409083594356801e+07  2.4151368050327070e+07  2.4211640381024756e+07  2.4321951250883598e+07  2.3496562018670630e+07  2.3537965311872285e+07  2.3528043015180960e+07  2.3503462556856301e+07  2.3523442954919532e+07  2.3502931573448233e+07  2.4800988058401708e+07  2.4904221855319794e+07  2.4221481172729716e+07  2.4528285211352527e+07  2.4352409311442338e+07  2.7459131921007164e+07  2.7136300800156083e+07  2.5248331858291890e+07  2.5250464973442480e+07  2.5574071210242398e+07  2.5031449989207719e+07  2.5608764488528918e+07  2.5509863016829401e+07  2.5672793917172745e+07  2.6174227879723769e+07  2.5937219687558614e+07  2.3632532371246330e+07  2.3790547720417600e+07  2.3958477428445827e+07  2.3641964575221140e+07  2.3864462602465492e+07  2.3682486291985657e+07  2.3910769629275184e+07  2.3680028144948609e+07  2.3645873512035083e+07  2.3789400042508096e+07  2.3887466278989114e+07  2.7160067235337280e+07  2.7698008605727259e+07  2.7396544148524035e+07  2.7739976754572649e+07  2.8031319401570212e+07  2.6665708959845688e+07  2.6125709286921352e+07  2.6629038895290013e+07  2.6425715065987661e+07  2.4161149328196954e+07  2.4469479949008167e+07  2.4538213419646882e+07  2.4140565023076229e+07  2.7120285641075030e+07  2.6877291891576394e+07  2.6818612224851273e+07  2.6653578900857836e+07  2.3576168758038756e+07  2.3563359173525106e+07  2.5251008586002886e+07  2.5287503760276720e+07  2.4971084499806143e+07  2.6856856347036336e+07  2.6567001396600179e+07  2.7093946078656305e+07  2.6598022473138452e+07  2.4478913774438106e+07  2.4284719406337727e+07  2.4278997303812109e+07  2.4378499145245776e+07  2.4329853440844610e+07  2.4408444015967123e+07  2.3643309873552177e+07  2.3525083586649247e+07  2.3535084547809873e+07  2.3505483493996348e+07  2.3589506587953217e+07  2.3569356096664291e+07  2.3758138267506056e+07  2.3878876166540336e+07  2.4038962625801623e+07  2.3805237900041152e+07  2.3797687586856395e+07  2.4002217831975121e+07  2.4098498221695889e+07  2.4099739365331262e+07  2.3854215522991560e+07  2.4004189334614787e+07  2.4644709978871554e+07  2.4869949955405112e+07  2.4638574815298378e+07  2.4535166814040545e+07  2.3576305570391502e+07  2.3664480091862321e+07  2.3590872150662683e+07  2.3714391451542858e+07  2.3583854043054398e+07  2.3601386854875326e+07  2.3548973976239484e+07  2.3542402735284746e+07  2.3595624536881786e+07  2.3604020034998927e+07  2.3592427682730269e+07  2.5991759269679517e+07  2.5866495574345093e+07  2.6288937227129847e+07  2.6277022182392117e+07  2.6895083107738350e+07  2.3950828380620655e+07  2.4057317856655646e+07  2.6679118871972740e+07  2.5553127169607271e+07  2.4919685847719170e+07  2.4925054876395956e+07  2.5390635234455425e+07  2.6628948483664323e+07  2.6395420612414662e+07  2.5279664077298656e+07  2.5262404018621780e+07  2.5177749434913509e+07  2.4672256473848611e+07  2.3599083617394075e+07  2.3686157802711148e+07  2.3632849007407557e+07  2.4970772398666337e+07  2.5379377334589753e+07  2.7639414239921104e+07  2.7844509401552349e+07  2.7155798900732141e+07  2.7604500833672799e+07  2.7231711978364218e+07  2.7119569147358857e+07  2.6664227748746775e+07  2.6618955064904712e+07  2.4472293639837768e+07  2.3708114338278361e+07  2.4940557135368649e+07  2.5442675222511176e+07  2.3530832533425007e+07  2.3548464330796886e+07  2.3551267791533384e+07  2.3638495729131855e+07  2.3828016393238474e+07  2.4288508924902003e+07  2.4071515704879016e+07  2.3952122109371789e+07  2.4622491538445212e+07  2.4988762631266948e+07  2.5024589792544033e+07  2.5040294944869619e+07  2.5083166718967017e+07  2.5871011528193902e+07  2.5696414109215200e+07  2.4507828309734162e+07  2.3972880191791430e+07  2.4109881985277306e+07  2.4168801597300321e+07  2.4191356767765746e+07  2.4111257698075648e+07  2.4155422926523376e+07  2.4397388618243091e+07  2.4060835066600144e+07  2.7572756113507070e+07  2.4313490294390608e+07  2.4284630031809825e+07  2.5769608363667734e+07  2.6187738460507233e+07  2.6684845499776114e+07  2.6474241953539338e+07  2.3611454237451296e+07  2.3573279554220907e+07  2.3616887929932196e+07  2.5039378774944548e+07  2.3562104661269784e+07  2.5098368490994845e+07  2.3869516938943639e+07  2.3671624606002558e+07  2.5129209290423255e+07  2.3792030336436767e+07  2.6330732624333169e+07  2.3492206418337978e+07  2.3509503813701924e+07  2.3510269004239481e+07  2.3508680620424077e+07  2.3513217775144104e+07  2.5559909851819556e+07  2.3806583444136493e+07  2.3829653216339197e+07  2.3819593853867140e+07  2.7552138998279762e+07  2.4807390627710816e+07  2.4263749814767696e+07  2.4252752297572453e+07  2.4327646845067292e+07  2.3565215278259736e+07  2.6627321201109529e+07  2.6704724540410701e+07  2.3577681474666644e+07  2.3585884797233433e+07  2.3769667229278672e+07  2.3801724862202745e+07  2.3895571328410849e+07  2.4579170403239671e+07  2.5226141151858561e+07  2.5391164546548069e+07  2.5063028633062173e+07  2.5464130347292148e+07  2.3711478284559529e+07  2.3606287056260183e+07  2.3663907605572760e+07  2.3637060512109563e+07  2.6787444844907440e+07  2.3520099335718628e+07  2.3558711622285955e+07  2.3592241497096393e+07  2.4106734336769626e+07  2.4077638882461756e+07  2.4140584822859004e+07  2.4020285568561018e+07  2.3603065867809054e+07  2.3551870374902349e+07  2.3582417364036918e+07  2.4164802713858392e+07  2.7246881230228916e+07  2.7364003179175854e+07  2.7491672205190964e+07  2.5193816000367865e+07  2.6551086761377867e+07  2.4129609006005604e+07  2.4198908673612982e+07  2.4150050587425653e+07  2.4237525648844875e+07  2.6037821027741455e+07  2.5578473126955178e+07  2.5707746677751303e+07  2.3499995527688146e+07  2.3511261589432824e+07  2.3530570053978503e+07  2.4387130491506960e+07  2.4464874134591367e+07  2.4426160183542214e+07  2.4338564320471957e+07  2.6337209166280434e+07  2.3574159087803107e+07  2.3564096907243200e+07  2.3572822563607030e+07  2.5090616528038543e+07  2.5060632556857631e+07  2.5072646133833516e+07  2.3936089708317850e+07  2.4010777198785935e+07  2.4065717316486061e+07  2.3605839707578700e+07  2.3560581408190463e+07  2.3552706595541388e+07  2.5146249852385767e+07  2.5231571899194237e+07  2.5184525860097408e+07  2.5125165953400087e+07  2.5131342637873903e+07  2.5147053477578055e+07  2.5114605186517060e+07  2.4103524361448765e+07  2.3564280598607548e+07  2.3766868054301534e+07  2.6512745581747755e+07  2.4263698913720202e+07  2.4246821192160081e+07  2.3493940944408741e+07  2.3526482920151059e+07  2.3511021913383365e+07  2.3532853008735258e+07  2.3548866737852849e+07  2.3533162086424142e+07  2.4267373610866021e+07  2.4133238957747530e+07  2.4203973276710115e+07  2.5387986986622840e+07  2.5638564523034055e+07  2.3636130911905043e+07  2.3710040946283024e+07  2.3765395285816900e+07  2.3826896010262284e+07  2.3898204293650240e+07  2.3733756498978280e+07  2.3615427865358718e+07  2.3617147648424637e+07  2.3969363202134263e+07  2.7520103653083801e+07  2.4215079586559154e+07  2.4372079665500049e+07  2.4219194679000244e+07  2.6759741140201602e+07  2.6770117010393411e+07  2.6654350529748611e+07  2.4325597193974245e+07  2.4438271548892647e+07  2.4328778560677145e+07  2.4058233942043193e+07  2.4498210988232464e+07  2.4515921784101769e+07  2.3585569501387630e+07  2.3605062535480566e+07  2.6140107844065551e+07  2.6088865686698198e+07  2.6237937997113492e+07  2.3656996184118833e+07  2.3555449036699619e+07  </DataArray> 
</PointData> 
</Piece>
</UnstructuredGrid>
</VTKFile>