<?xml version="1.0"?>
<VTKFile type="UnstructuredGrid"  version="0.1"  >
<UnstructuredGrid>
<Piece  NumberOfPoints="784" NumberOfCells="1320">
<Points>
<DataArray  type="Float64"  NumberOfComponents="3"  format="ascii">266913.131276 586512.314988 0  266738.13716 587762.325998 0  266363.132677 589012.328643 0  266175.641078 590169.601714 0  265666.575631 591040.7699119999 0  264875.64001 591687.766419 0  264900.636161 591845.049083 0  266088.14152 592012.3229499999 0  265561.959259 592661.17101 0  264288.136855 593037.368683 0  263865.194033 593999.8486949999 0  263850.641856 593236.729596 0  263625.634872 592756.525286 0  262689.574249 593299.848918 0  262475.636737 594003.0907310001 0  261934.554452 594340.929792 0  261725.631329 594932.094409 0  261729.256443 595728.498809 0  262138.136044 595012.330523 0  262288.141035 596262.333669 0  261488.994028 597511.480605 0  261234.15567 598316.338928 0  260815.635063 599014.863821 0  261400.643658 599389.7367680001 0  261322.963374 600022.185065 0  261119.455248 600931.061306 0  261607.436504 601293.0629359999 0  260807.446929 602089.899812 0  260025.642878 602988.868697 0  259613.135827 603937.3854499999 0  259050.643123 604100.987861 0  258411.880065 603988.6335979999 0  257764.357469 604449.872569 0  257971.239668 605320.429125 0  258041.396867 605740.635381 0  257188.143339 606987.394312 0  256038.141198 608112.3554550001 0  254788.141633 609087.4026939999 0  253588.140656 609812.362881 0  252338.135706 609737.4048949999 0  251088.138116 609787.404055 0  249963.12851 610287.399466 0  248613.130524 610462.365857 0  247363.132198 610687.407659 0  246113.130532 610837.411551 0  245832.347438 610918.209918 0  245016.946433 610958.5639439999 0  244313.129646 610762.372259 0  244400.622144 611378.093316 0  243939.669208 612460.8930899999 0  242960.649733 611984.892792 0  242170.381438 611919.647351 0  241888.122919 611112.375656 0  241393.380757 610467.6456149999 0  240594.157528 611306.369822 0  240525.621947 610804.648112 0  240363.123632 610512.3745050001 0  239113.123247 610262.374278 0  239813.12126 609037.412459 0  240588.122952 607812.368199 0  241013.119545 606625.9534560001 0  241454.373249 605724.888025 0  242238.120107 604687.3993 0  243088.121248 603462.362766 0  242860.319451 603007.3932640001 0  241563.116617 603812.361344 0  241778.400913 604327.642217 0  242059.837234 604824.879102 0  241475.620201 604923.2402390001 0  241462.182234 605449.881372 0  240906.219606 605674.888222 0  240241.856192 606891.125066 0  239891.734044 607841.012479 0  239048.653431 608724.889805 0  238118.054545 608974.895967 0  238888.111029 607337.406468 0  239738.119992 606212.362729 0  240288.12044 605687.4075229999 0  240380.212307 604729.521696 0  239347.309632 604603.204501 0  238888.112036 604387.408787 0  237913.11173 604687.401386 0  236784.172023 604499.882783 0  236883.408793 603717.08334 0  236154.933927 603595.565605 0  235688.103943 602912.369264 0  235763.108033 601662.366516 0  236363.110805 600412.35884 0  236738.107995 599162.356577 0  236525.607944 598482.2412899999 0  236138.109208 599362.357613 0  235725.063048 600325.4466510001 0  235091.948926 601408.5220979999 0  235188.10921 600312.366344 0  234375.602405 600833.9674270001 0  234663.109308 599912.358011 0  234138.105122 600062.365644 0  233955.307245 599029.561063 0  233338.103791 598387.401556 0  233988.09795 597862.356384 0  235138.101489 596637.3947750001 0  235563.1039 595387.392428 0  236513.103639 594212.356312 0  237163.10684 592987.3929869999 0  238313.103031 591862.3515540001 0  239513.107028 590812.3512640001 0  240638.102135 589787.387271 0  241463.109549 588587.378486 0  242294.489816 587443.735215 0  242913.101099 586512.341804 0  243544.066915 585474.859604 0  243040.448415 585184.975583 0  242438.10214 585337.38015 0  241313.102353 586562.339499 0  240538.107104 587787.382449 0  240114.641085 588588.939407 0  239388.100256 589437.382238 0  238188.104456 590512.346358 0  236938.100507 591362.349798 0  235813.10453 592537.396388 0  234864.502938 593178.7753880001 0  234463.097651 592862.357267 0  235113.0965 591662.3545979999 0  235713.101522 590412.346099 0  235777.688431 589976.7582779999 0  234943.583145 590706.265132 0  234462.482256 591490.2841159999 0  233801.497784 592112.940187 0  233388.099101 591787.394208 0  234013.093099 590437.393065 0  234776.217248 587148.7548100001 0  235163.093726 586562.3486189999 0  235313.098918 585483.229012 0  235250.59732 584662.298153 0  235588.093896 583337.379493 0  236329.432041 582199.858992 0  237188.096234 581462.3349939999 0  237463.088521 580212.335511 0  238350.592558 579057.652616 0  238591.415797 578574.847681 0  238313.094106 577612.328905 0  239229.696732 577695.769664 0  240195.161018 577513.008613 0  240614.996733 577149.8518770001 0  240663.091715 577412.332622 0  240288.092486 578662.334085 0  239942.357258 579508.095811 0  240438.100019 580212.3334220001 0  241338.095553 580387.375355 0  241238.099828 579137.369157 0  241788.097003 577887.370889 0  241983.554649 577241.9220939999 0  242054.178239 576927.8105029999 0  242588.100699 575737.366175 0  243149.324833 574898.583978 0  243695.278626 573919.517981 0  244268.494418 573724.8454239999 0  244995.134063 573930.2767810001 0  245417.314363 573391.601898 0  243450.599125 571859.479773 0  245776.797908 572599.8353060001 0  246779.639852 572973.285167 0  248034.741935 573186.082054 0  249413.10651 573162.3205520001 0  250496.922226 573271.1521899999 0  251613.105126 573237.3551319999 0  252421.824577 572846.032906 0  253256.245022 572580.4733130001 0  253739.471933 571960.9547369999 0  254174.511864 572149.8346569999 0  254484.944333 571684.194807 0  254384.108649 570891.346712 0  254344.002752 570218.26407 0  255025.609604 570829.0294979999 0  255715.005913 570489.264586 0  256218.846343 570774.828355 0  256834.349083 570508.5908 0  257390.092515 570014.308325 0  257624.431042 568493.478911 0  259355.811717 569380.021819 0  260033.372814 569617.066669 0  262679.741751 570320.699974 0  263289.115756 569524.817815 0  263463.114338 570512.301061 0  264638.198419 570687.3443539999 0  265058.220065 571334.378467 0  265447.561421 572077.90485 0  265488.125257 573137.3446020001 0  265131.937715 573963.293593 0  265432.389648 575093.068786 0  265638.122314 576338.029955 0  265750.630817 577371.8281319999 0  265738.570663 578561.9098850001 0  265875.630866 579139.630549 0  266213.129247 579862.311842 0  266563.130472 581112.314509 0  266238.135356 582362.310259 0  265938.12863 583612.320897 0  265738.131342 584762.3210189999 0  266875.638633 585365.358768 0  264018.7239399826 593650.4646671159 0  262236.3944351029 595831.1252656333 0  241846.246678 605206.1436625 0  240200.622106 608424.8903290001 0  240943.4862974102 610939.7757535663 0  236550.6094 599787.3577085 0  238528.1212051503 608102.9081793013 0  244413.4891967989 572609.5960859474 0  236382.0474488751 598808.3067022427 0  235369.601910944 600933.5380148316 0  235413.099011 591037.3503485 0  235446.2251831186 590266.6553871984 0  240475.5921005 578037.3333535 0  240413.173949154 577324.4280286073 0  240574.037899 606283.0066440001 0  263857.9179445 593618.2891454998 0  264153.4303974913 593343.916675058 0  242042.1833925 604946.7714812499 0  241650.3099635 605465.51584375 0  244613.6985165 572229.6575395 0  236631.8579695 598822.2989335 0  235140.029068 600860.444221 0  241767.7287175 604874.0596705 0  242140.15174975 604817.0853906251 0  234781.8558075 600573.1668855001 0  242091.167571125 604881.9284359375 0  234519.3558565 600373.162719 0  254604.8337712102 583989.0014118921 0  250699.5846056537 594617.3297041012 0  250540.4796469513 602258.2940568649 0  248483.7490186612 580334.7345534252 0  258549.2190328319 577893.951823392 0  257067.0067473103 590016.5327808241 0  243285.0921999099 596333.923437875 0  248333.1386145258 589098.0389905117 0  256142.8445072741 595883.3911551933 0  260245.1368072523 583315.2785712298 0  253472.3380211276 578932.2908163272 0  246432.3347504817 599884.5019511909 0  261555.9240922556 588041.186709004 0  247293.1100123104 605823.8307887657 0  246458.2798550911 593168.8646574575 0  252840.0183145193 588226.5564648228 0  249828.2874404451 584740.7888937403 0  255409.5660975206 600458.8956828594 0  260819.9733392385 574219.403683011 0  252584.2262054711 605722.6603825617 0  254049.8830611471 592547.4852571967 0  250015.4356193061 598425.2225922942 0  245872.072249477 577604.9761853142 0  262002.1583249522 579753.4663046852 0  257732.6630933878 586227.970805314 0  250242.5556457866 577017.3316409125 0  244921.6453001869 581816.6358421432 0  256520.3890639471 580904.824006648 0  240779.0970645865 599524.6679555867 0  257100.1829219198 574459.5922545703 0  239912.2630002034 595231.1172704464 0  244703.0875078634 590068.6945953515 0  242549.5490268674 592874.3693043783 0  251586.0465921376 581796.2215047925 0  246643.189997516 596527.447801719 0  251049.7658069622 591057.6752245198 0  253014.5731561695 596998.6601086652 0  238680.2197353724 584542.2309791476 0  259715.365803504 591937.1938619445 0  254097.157218761 575731.4494927844 0  246806.6408589328 586139.0877599345 0  246136.1179750556 602959.471719323 0  253520.7033332401 602835.180253843 0  244125.4295793909 607538.9817227355 0  252546.8895354472 599881.3279113505 0  258289.0983523553 600397.640191779 0  247518.7952199645 583037.3718217331 0  263140.3959879661 582529.2228421422 0  262894.8586894067 585442.3590432997 0  256968.6320599076 593040.7691844478 0  243573.0187527719 600218.2795730785 0  258888.5766127351 595139.7745218446 0  262588.7569809347 576734.8569237856 0  259318.4257992262 580601.2540325444 0  249963.3812725965 607065.7205847671 0  257494.5307999607 583482.5893534871 0  258906.4757205145 572278.8089438241 0  237751.446593475 587300.5805003279 0  255142.4708720699 604956.7580261135 0  258485.4978753244 597756.9250383095 0  255516.7820591553 587791.39641967 0  239758.4692108706 601926.8203218657 0  255873.0092222999 577739.5085867504
[...]
<PointData  Scalars="f_32-0"> 
<DataArray  type="Float64"  Name="f_32-0"  format="ascii">3.2298000550810587e+07  3.2427970986776944e+07  3.2573526643787414e+07  3.2684495543217897e+07  3.2756579040425882e+07  3.2856056463975564e+07  3.2886558922826115e+07  3.2907956739691321e+07  3.2908775149664041e+07  3.2931963052579161e+07  3.2941293770988669e+07  3.2939922614223834e+07  3.2960113038177606e+07  3.3106050793841664e+07  3.3195825633885287e+07  3.3273267437510762e+07  3.3375375709695298e+07  3.3484266329602841e+07  3.3497170839819755e+07  3.3513271734101251e+07  3.3592848102018408e+07  3.3653070556523338e+07  3.3718717059729412e+07  3.3752945661927037e+07  3.3769031912957422e+07  3.3802703410680212e+07  3.3812268901618637e+07  3.3828824702624053e+07  3.3860428330279350e+07  3.3881321972519562e+07  3.3887552189593710e+07  3.3904433339201458e+07  3.3944470008143201e+07  3.3975175721794739e+07  3.3980565128890470e+07  3.4003341153920509e+07  3.4027235058988474e+07  3.4047363502608843e+07  3.4060057773105934e+07  3.4070454735573500e+07  3.4085100988938197e+07  3.4098800872614615e+07  3.4111211850865185e+07  3.4122451733670875e+07  3.4132576347570881e+07  3.4134690763703525e+07  3.4140007358765587e+07  3.4146488050863460e+07  3.4151301633375667e+07  3.4153499953067929e+07  3.4153988596183673e+07  3.4154450318023905e+07  3.4154282947443575e+07  3.4154957347933106e+07  3.4156842056900181e+07  3.4156676268391162e+07  3.4156657364056930e+07  3.4157373372833461e+07  3.4155248713968873e+07  3.4147883674429983e+07  3.4138002653194353e+07  3.4128552482624084e+07  3.4111191468566976e+07  3.4076125107436202e+07  3.4060031784391582e+07  3.4070969226312876e+07  3.4077947177131407e+07  3.4079929601044245e+07  3.4082089351943187e+07  3.4085584795593612e+07  3.4090671641336016e+07  3.4109252272619091e+07  3.4115325562000148e+07  3.4118299786328703e+07  3.4118934427987956e+07  3.4115686662401743e+07  3.4106503197156385e+07  3.4095811837873414e+07  3.4080459062948048e+07  3.4075095463967934e+07  3.4074536372250356e+07  3.4074616944349483e+07  3.4074506322492637e+07  3.4073087868470542e+07  3.4071963553907908e+07  3.4070744661422826e+07  3.4066217774676874e+07  3.4054342002558857e+07  3.4033894081652425e+07  3.4023651046540767e+07  3.4030735864010461e+07  3.4034906174693979e+07  3.4036378729504064e+07  3.4035194215966053e+07  3.4035784586544357e+07  3.4034503584789030e+07  3.4034266210775688e+07  3.4032436967843577e+07  3.4031517641628295e+07  3.4029323627143309e+07  3.4010619296922095e+07  3.3987499072512567e+07  3.3952153904062055e+07  3.3911637707722969e+07  3.3853538508833654e+07  3.3769649762678832e+07  3.3653938388790995e+07  3.3515351186787046e+07  3.3359261006077230e+07  3.3207208827794321e+07  3.2990300868664492e+07  3.2927361870532651e+07  3.2973032716569632e+07  3.3120261282865230e+07  3.3210666560644064e+07  3.3248218529338405e+07  3.3282530738911480e+07  3.3321971121617619e+07  3.3350510131696157e+07  3.3371246004857898e+07  3.3376237433925349e+07  3.3376293320415061e+07  3.3368774973059688e+07  3.3349749051072460e+07  3.3343004048014235e+07  3.3356988127218015e+07  3.3366200285019934e+07  3.3369334483928815e+07  3.3369364649853997e+07  3.3359622370013349e+07  3.3298966426381472e+07  3.3277854277106524e+07  3.3239109791344631e+07  3.3214398687566292e+07  3.3177349378381763e+07  3.3134098806220245e+07  3.3081960404372983e+07  3.3038773283327017e+07  3.3020138029851843e+07  3.3022541399787392e+07  3.3026518172626954e+07  3.3025717675869592e+07  3.3027050188714340e+07  3.3027915654309887e+07  3.3027808359438520e+07  3.3020051558978830e+07  3.2990681860219628e+07  3.2891991551363975e+07  3.2629288889872499e+07  3.2352047176946156e+07  3.2155055322905522e+07  3.2057415223603293e+07  3.2019437505632702e+07  3.1880280829811327e+07  3.1783112762787338e+07  3.1705208194937065e+07  3.1679174973275468e+07  3.1595887049069908e+07  3.1502426783842865e+07  3.1503618927818034e+07  3.1477657080852844e+07  3.1394688359940805e+07  3.1192112382793993e+07  3.0925236217326015e+07  3.0698822126519360e+07  3.0438972740262009e+07  3.0277219563362002e+07  3.0177709342461184e+07  3.0148028635191269e+07  3.0142529974102035e+07  3.0153557957610909e+07  3.0170761505827192e+07  3.0173398515132647e+07  3.0172931301100772e+07  3.0184003582321178e+07  3.0197987178022172e+07  3.0236845118505355e+07  3.0285710135697234e+07  3.0324070996863071e+07  3.0330425624919217e+07  3.0344810256470475e+07  3.0416168784781877e+07  3.0427790988415629e+07  3.0428837607163418e+07  3.0437690836439025e+07  3.0437104527023271e+07  3.0433252574947521e+07  3.0422174839237001e+07  3.0403904979821555e+07  3.0387386888223842e+07  3.0394866771501746e+07  3.0437171603308178e+07  3.0575933171329331e+07  3.0700495721462805e+07  3.0865265701063838e+07  3.1089681691965070e+07  3.1324356423804518e+07  3.1628200908310972e+07  3.1990174646209493e+07  3.2200777713156473e+07  3.2940818610866759e+07  3.3502025368014574e+07  3.4121049422900341e+07  3.4152370450236879e+07  3.4156596018790059e+07  3.4045178066230424e+07  3.4118045045868576e+07  3.1498989230971806e+07  3.4026586775780402e+07  3.4036079074047931e+07  3.3360615096374638e+07  3.3348040101191148e+07  3.3025965998369310e+07  3.3027734419040661e+07  3.4101540935117632e+07  3.2940805410302829e+07  3.2939411882323217e+07  3.4116426778528325e+07  3.4125133620460153e+07  3.1498994045312811e+07  3.4027491344216228e+07  3.4036079226129688e+07  3.4080255623618290e+07  3.4113903156344198e+07  3.4035547867325030e+07  3.4115184604450926e+07  3.4035540833354652e+07  3.1923831480134215e+07  3.3627406797316402e+07  3.3980069366852053e+07  3.1670701178137891e+07  3.0034498580747593e+07  3.2975423457259178e+07  3.3890379922150463e+07  3.3207708692101974e+07  3.3588685889376156e+07  3.1557100218511358e+07  3.0536317872812819e+07  3.3962688933366515e+07  3.2552954473318543e+07  3.4086248276220746e+07  3.3645432838804096e+07  3.2876635103933878e+07  3.2466399286371835e+07  3.3851457132365301e+07  3.0225792909918923e+07  3.4032102836358227e+07  3.3361945437207688e+07  3.3853591535687968e+07  3.1676773010197401e+07  3.0670397497954421e+07  3.2306113396858905e+07  3.0848750753658265e+07  3.2392094532297865e+07  3.0834259282199495e+07  3.4015226256995916e+07  3.0003162765448570e+07  3.3918823563283704e+07  3.3474609305291895e+07  3.3752798271912128e+07  3.1644832975464888e+07  3.3831236700758494e+07  3.3309975860213052e+07  3.3725985445661731e+07  3.3136642570168924e+07  3.3123619547103278e+07  2.9991855061967164e+07  3.2908365148189936e+07  3.4045413724106804e+07  3.3958011743453972e+07  3.4129617042880729e+07  3.3872753080034986e+07  3.3807047000089325e+07  3.2339480653571442e+07  3.1388501465193640e+07  3.2062778576855663e+07  3.3326723630228270e+07  3.4004532741119802e+07  3.3467226334877931e+07  3.0304182920862466e+07  3.0758127444420595e+07  3.4077340557217360e+07  3.1635166689340342e+07  3.0236265311744504e+07  3.3260439547933262e+07  3.3989515860855035e+07  3.3668784405610651e+07  3.2686992760866970e+07  3.4058890178478271e+07  2.9962718844266627e+07  3.2886568164749265e+07  3.2808030331099756e+07  3.3527493623166002e+07  3.2154868584881067e+07  3.1250660627721399e+07  3.2460030688048732e+07  3.3070079172374688e+07  3.1158536203833506e+07  3.1250239108319242e+07  3.2156736531749927e+07  3.2675026575891118e+07  3.4118205283555262e+07  3.4037342197044618e+07  3.2154803032973245e+07  3.4095236839932658e+07  3.3926367717623346e+07  3.3952393952456757e+07  3.3994349988999888e+07  3.3011579081644073e+07  3.2710443845622960e+07  3.3744526205318570e+07  3.3892344538091280e+07  3.2871620991808049e+07  3.4030874201436207e+07  3.2464728253023848e+07  3.3571282085856751e+07  3.0376556349912625e+07  3.1331068347740728e+07  3.3705892888074026e+07  3.3952258034547560e+07  3.3455560469843820e+07  3.3772397605570309e+07  3.3217575748587452e+07  3.3827383063465632e+07  3.0099597373171154e+07  3.1898383613407660e+07  3.1980107267759752e+07  3.3977181662027761e+07  3.3641501097954832e+07  3.0885980098371495e+07  3.4052284682657592e+07  3.3452877323600549e+07  3.4040153523781970e+07  3.0343069490966108e+07  3.4117812159127273e+07  3.4115309845913537e+07  3.1945676551350117e+07  3.2906204587796073e+07  3.4116013596675836e+07  3.4132529024302796e+07  3.4020195763500519e+07  3.4025510413288131e+07  3.3334567077026673e+07  3.0095625880381148e+07  3.4048038706496082e+07  3.3989173652461916e+07  3.2009651096071701e+07  3.2884800786066592e+07  3.2722298185934726e+07  3.4127723166774534e+07  3.4114614995765276e+07  3.3328655206593961e+07  3.4070468319466054e+07  3.4096789875100598e+07  3.4106494323755711e+07  3.4133781342375398e+07  3.2792808104340509e+07  3.1435132489161476e+07  3.3339925978498086e+07  3.0185511304716062e+07  3.2820528560865767e+07  3.0633495446950916e+07  3.3296104164392337e+07  3.4150267019796327e+07  3.3202248297875833e+07  3.3348302149281736e+07  3.4021499549215429e+07  3.2890635095520481e+07  3.0309266983028237e+07  3.3342073683435440e+07  3.0227944740562048e+07  3.1704110371466927e+07  3.4025086868785754e+07  3.4008213446963869e+07  3.3003986641136788e+07  3.4150440310379997e+07  3.0851386980737064e+07  3.4049879241422832e+07  3.3624636148046173e+07  3.0420554029258028e+07  3.0125783022053514e+07  3.0033082580084197e+07  3.3877824971612662e+07  3.4059960656851083e+07  3.4037705736279555e+07  3.3781184472386457e+07  3.4123382164273515e+07  3.3447127399822541e+07  3.1493404400317453e+07  3.1492918852309342e+07  3.0255411463914476e+07  3.4115827919469871e+07  3.4118805488154911e+07  3.4120023603512093e+07  3.3982146794198707e+07  3.4001200519894511e+07  3.4123746941074349e+07  3.4104927654448830e+07  3.3237310532387707e+07  3.4156133366521329e+07  3.4155563802383609e+07  3.2871871196750842e+07  3.0387432474166304e+07  3.3012903985305924e+07  3.4074239663810797e+07  3.3184996485428821e+07  3.3115981177277580e+07  3.4152191551606871e+07  3.3011399152983122e+07  3.3913903109569855e+07  3.1725697157120999e+07  3.2028972002866421e+07  3.1946908715122916e+07  3.2113931424479891e+07  3.4031491576434307e+07  3.2876853699050993e+07  3.2913890068326894e+07  3.2833979931776818e+07  3.2908724666249305e+07  3.2733625509070802e+07  3.0409890597259007e+07  3.0346190095896188e+07  3.2975954252725393e+07  3.1896761447814450e+07  3.3374677823758602e+07  3.3374207717059772e+07  3.4154345293861158e+07  3.3585359017959297e+07  3.3413728238085005e+07  3.2962909280057851e+07  3.2863970854766555e+07  3.2887014956041045e+07  3.2942939346170582e+07  3.2880854520526197e+07  3.2913987782650806e+07  3.3052260639073506e+07  3.2936332004127104e+07  3.2993437834317338e+07  3.3125556108684424e+07  3.3063215734694447e+07  3.2500092671945330e+07  3.2734092793796428e+07  3.1055549532888189e+07  3.1203974700084675e+07  3.1021183113498677e+07  3.0818685203141630e+07  3.0883186228300087e+07  3.0570353197437938e+07  3.0770362711231846e+07  3.0652096646420270e+07  3.0213276015212130e+07  3.0124082715591237e+07  3.0382067948696356e+07  3.0410426386957675e+07  3.0394640036057729e+07  3.0487965125901390e+07  3.0416537140238442e+07  3.0635423533896603e+07  3.0606876947686050e+07  3.0458967753271949e+07  3.0787899957671728e+07  3.0662093161480892e+07  3.0861222658325266e+07  3.0741532128187012e+07  3.1003486591547545e+07  3.1381760844366319e+07  3.1138667236709505e+07  3.2114627039026596e+07  3.1410445160979100e+07  3.1766733704066534e+07  3.2212483985582784e+07  3.3753712781866096e+07  3.3678920926620305e+07  3.3578831629916571e+07  3.3667202776343025e+07  3.3930923606695659e+07  3.4011338410320327e+07  3.3966845792546660e+07  3.4006712177032508e+07  3.2019515810644485e+07  3.1429965325707830e+07  3.1467449448369220e+07  3.1774168565991480e+07  3.0349423551211365e+07  3.0318527867399231e+07  2.9916743321637005e+07  3.0344151592385199e+07  2.9953248279537760e+07  3.0039762168550521e+07  3.3056899125769347e+07  3.3165627837800458e+07  3.2839592937718466e+07  3.3021830548331454e+07  3.2829262629202459e+07  3.3903797284349471e+07  3.3827690988423392e+07  3.3258129869290542e+07  3.3065191004268102e+07  3.3381848374071360e+07  3.3049584996454429e+07  3.3338932640124183e+07  3.3209677347693194e+07  3.3483901112542540e+07  3.3660083016080946e+07  3.3579259257072054e+07  3.1089818832886986e+07  3.1467621907803763e+07  3.1825586873148259e+07  3.1175470564502824e+07  3.0625336406463053e+07  3.0602799698982701e+07  3.1114620354275499e+07  3.0132536724545136e+07  3.0190615463119190e+07  3.0873038389284205e+07  3.0853885094305370e+07  3.3912638420242667e+07  3.4007809829284020e+07  3.3957899101026677e+07  3.4010036055534720e+07  3.4068501766385667e+07  3.3747098291093320e+07  3.3556820672524936e+07  3.3711771368326992e+07  3.3642336263892598e+07  3.2780886415469427e+07  3.2976489932942662e+07  3.2870771395801608e+07  3.2683418568192068e+07  3.3908939066212937e+07  3.3861751052086495e+07  3.3828585361732446e+07  3.3801843151969790e+07  3.0102373287338644e+07  3.0236038614371419e+07  3.3334217166254587e+07  3.3343978902644671e+07  3.3225868562426440e+07  3.3841619988122016e+07  3.3793321456889108e+07  3.3906595327905737e+07  3.3785951774128638e+07  3.1909549923264183e+07  3.1461098476329021e+07  3.1500362547137357e+07  3.1758514252515279e+07  3.1539399604310527e+07  3.1697810098321043e+07  3.1027712610545702e+07  3.0407042991980217e+07  3.0705355739175271e+07  3.0301752622826867e+07  3.0780559975135677e+07  3.0649849895035021e+07  3.1996417114266220e+07  3.2501517114462655e+07  3.2503524894119404e+07  3.2372990725246869e+07  3.0349396299087159e+07  3.0957409548252594e+07  3.1049400451836683e+07  3.1105196140700139e+07  3.0479968479734126e+07  3.0830060915119752e+07  3.2352679569922246e+07  3.2617764790367600e+07  3.2263674452931747e+07  3.2152949810803823e+07  3.0766401671086192e+07  3.1256850982072171e+07  3.0311437826708417e+07  3.1018754769592654e+07  2.9922468314339347e+07  3.0128490177021671e+07  2.9871451600956887e+07  3.0007892542688761e+07  3.0047062198676076e+07  3.0103971905814417e+07  2.9987597581359830e+07  3.3464364117333531e+07  3.3355359112318601e+07  3.3563675638040461e+07  3.3529550869550891e+07  3.3761312842447884e+07  3.1449083415155981e+07  3.1390830542161454e+07  3.3772338790875971e+07  3.3424642177075811e+07  3.3191724311433803e+07  3.3111079008840118e+07  3.3384011737959690e+07  3.3805831548967771e+07  3.3735190415419124e+07  3.3075664506067358e+07  3.3081140586644761e+07  3.3229582321120184e+07  3.2923025665968042e+07  2.9926302747832309e+07  3.0096575400448836e+07  2.9995507068073288e+07  3.2885447399744961e+07  3.3069930231645897e+07  3.4003553236943670e+07  3.4038558929076053e+07  3.3919590536868691e+07  3.4000601192132808e+07  3.3926780406512983e+07  3.3913972003712639e+07  3.3812254166808039e+07  3.3777669375487588e+07  3.2103842864863582e+07  3.1134272763855685e+07  3.3208404149670023e+07  3.3329855893464085e+07  3.0210476805743888e+07  3.0429977986991908e+07  3.0352535873348344e+07  3.1187177087194692e+07  3.1910669026177865e+07  3.2891738965419017e+07  3.2676563191168260e+07  3.2577683166395810e+07  3.2800135524275873e+07  3.2788701698145963e+07  3.2850273780385923e+07  3.2829620563172758e+07  3.2920069318256203e+07  3.3490578574087240e+07  3.3489217408271614e+07  3.2029547854270715e+07  3.1743994961010128e+07  3.1225764938354731e+07  3.1583028605343468e+07  3.1270054007823784e+07  3.1055803374872670e+07  3.2430482507209353e+07  3.2548383404055145e+07  3.2309865214177318e+07  3.3995172147599004e+07  3.2675313954830434e+07  3.1598865387251917e+07  3.3344383181639787e+07  3.3553844529897574e+07  3.3710674044227764e+07  3.3612214592727020e+07  3.0750710071413286e+07  3.0348539715693966e+07  3.0053257814040139e+07  3.2840276712701049e+07  3.0471051133333620e+07  3.2951548270349685e+07  3.0525809403176729e+07  3.0100322619437385e+07  3.2941859933714706e+07  3.2159373843687568e+07  3.3712306186657824e+07  3.0181006775311805e+07  3.0138323674882427e+07  2.9935623411001500e+07  2.9985964696799733e+07  2.9959391784067079e+07  3.3276310646167215e+07  3.0563250697769783e+07  3.0824678116569594e+07  3.0693302916180674e+07  3.3984194558932446e+07  3.3112020805608250e+07  3.2828749769294515e+07  3.2783080072586823e+07  3.2778700509010203e+07  3.0117208842985205e+07  3.3806568522865377e+07  3.3821230371769853e+07  3.0869363444990240e+07  3.0845580925855525e+07  3.2211062592443824e+07  3.2336370107035816e+07  3.0597283295570757e+07  3.2249069442211054e+07  3.3284031412457153e+07  3.3368900211551175e+07  3.3215318561830167e+07  3.3404072303426888e+07  3.0140456290335257e+07  2.9931993177494414e+07  3.0039580021494187e+07  2.9987946239291590e+07  3.3843459303738400e+07  3.0546390460503519e+07  3.0756528035056695e+07  3.0966265401329190e+07  3.2765390429882728e+07  3.2733470500725210e+07  3.2792839042998217e+07  3.2680160925607566e+07  3.0059261605048936e+07  2.9874847539920986e+07  2.9931025728877865e+07  3.2675087956195828e+07  3.3933347025482111e+07  3.3955239530187212e+07  3.3979339722743459e+07  3.3006993734588046e+07  3.3779303864196621e+07  3.2571660373082895e+07  3.1390381398283381e+07  3.1272276711478785e+07  3.1461929251592066e+07  3.3506208312563792e+07  3.3212948099759519e+07  3.3282904903508265e+07  3.0161383885136846e+07  3.0065516666591622e+07  3.0039300890137196e+07  3.1820769169133231e+07  3.2026990696025327e+07  3.1993723920929208e+07  3.1745935517337650e+07  3.3598725692148454e+07  3.0531487607459906e+07  3.0518801176776130e+07  3.0542406001186203e+07  3.2943535659095827e+07  3.2903100018190488e+07  3.2920698957705662e+07  3.0669670246881157e+07  3.0836887475007061e+07  3.0954416842093542e+07  2.9971111304281030e+07  3.0419010061536420e+07  3.0402422710983366e+07  3.3001666843455143e+07  3.3071460113091119e+07  3.3036893829585843e+07  3.2968113842734452e+07  3.2982036356684174e+07  3.2977083086551245e+07  3.2972859411756016e+07  3.1033851665730827e+07  3.0464919004087493e+07  3.2247895903732177e+07  3.3769987867146954e+07  3.1617416583920889e+07  3.1530267054281753e+07  3.0163064544856608e+07  3.0102892717741508e+07  3.0528090157977849e+07  3.0535205956816021e+07  3.0090042709100556e+07  2.9875548030456811e+07  3.2833812463344242e+07  3.2759420196086723e+07  3.2755610729906823e+07  3.3345183172445241e+07  3.3278868220010001e+07  3.1058934159067858e+07  3.1246140930870160e+07  3.0360010829354692e+07  3.0459210375332549e+07  3.0979169454418190e+07  3.0216900565842476e+07  3.0225501659112416e+07  3.0021672975238379e+07  3.1129127463320289e+07  3.3981875233833656e+07  3.2837224827919342e+07  3.2933995956769399e+07  3.2678394926097978e+07  3.3832525918172583e+07  3.3837860989292890e+07  3.3806823171344295e+07  3.1625260301904641e+07  3.1892984787654027e+07  3.1676423228694756e+07  3.0944190153144699e+07  3.2124053858092487e+07  3.2085833459852614e+07  2.9893306160228297e+07  2.9947019925270744e+07  3.3515485034500282e+07  3.3510725775108147e+07  3.3558501303498276e+07  3.0038004062412933e+07  3.0450906377728641e+07  </DataArray> 
</PointData> 
</Piece>
</UnstructuredGrid>
</VTKFile>