<?xml version="1.0"?>
<VTKFile type="UnstructuredGrid"  version="0.1"  >
<UnstructuredGrid>
<Piece  NumberOfPoints="784" NumberOfCells="1320">
<Points>
<DataArray  type="Float64"  NumberOfComponents="3"  format="ascii">266913.131276 586512.314988 0  266738.13716 587762.325998 0  266363.132677 589012.328643 0  266175.641078 590169.601714 0  265666.575631 591040.7699119999 0  264875.64001 591687.766419 0  264900.636161 591845.049083 0  266088.14152 592012.3229499999 0  265561.959259 592661.17101 0  264288.136855 593037.368683 0  263865.194033 593999.8486949999 0  263850.641856 593236.729596 0  263625.634872 592756.525286 0  262689.574249 593299.848918 0  262475.636737 594003.0907310001 0  261934.554452 594340.929792 0  261725.631329 594932.094409 0  261729.256443 595728.498809 0  262138.136044 595012.330523 0  262288.141035 596262.333669 0  261488.994028 597511.480605 0  261234.15567 598316.338928 0  260815.635063 599014.863821 0  261400.643658 599389.7367680001 0  261322.963374 600022.185065 0  261119.455248 600931.061306 0  261607.436504 601293.0629359999 0  260807.446929 602089.899812 0  260025.642878 602988.868697 0  259613.135827 603937.3854499999 0  259050.643123 604100.987861 0  258411.880065 603988.6335979999 0  257764.357469 604449.872569 0  257971.239668 605320.429125 0  258041.396867 605740.635381 0  257188.143339 606987.394312 0  256038.141198 608112.3554550001 0  254788.141633 609087.4026939999 0  253588.140656 609812.362881 0  252338.135706 609737.4048949999 0  251088.138116 609787.404055 0  249963.12851 610287.399466 0  248613.130524 610462.365857 0  247363.132198 610687.407659 0  246113.130532 610837.411551 0  245832.347438 610918.209918 0  245016.946433 610958.5639439999 0  244313.129646 610762.372259 0  244400.622144 611378.093316 0  243939.669208 612460.8930899999 0  242960.649733 611984.892792 0  242170.381438 611919.647351 0  241888.122919 611112.375656 0  241393.380757 610467.6456149999 0  240594.157528 611306.369822 0  240525.621947 610804.648112 0  240363.123632 610512.3745050001 0  239113.123247 610262.374278 0  239813.12126 609037.412459 0  240588.122952 607812.368199 0  241013.119545 606625.9534560001 0  241454.373249 605724.888025 0  242238.120107 604687.3993 0  243088.121248 603462.362766 0  242860.319451 603007.3932640001 0  241563.116617 603812.361344 0  241778.400913 604327.642217 0  242059.837234 604824.879102 0  241475.620201 604923.2402390001 0  241462.182234 605449.881372 0  240906.219606 605674.888222 0  240241.856192 606891.125066 0  239891.734044 607841.012479 0  239048.653431 608724.889805 0  238118.054545 608974.895967 0  238888.111029 607337.406468 0  239738.119992 606212.362729 0  240288.12044 605687.4075229999 0  240380.212307 604729.521696 0  239347.309632 604603.204501 0  238888.112036 604387.408787 0  237913.11173 604687.401386 0  236784.172023 604499.882783 0  236883.408793 603717.08334 0  236154.933927 603595.565605 0  235688.103943 602912.369264 0  235763.108033 601662.366516 0  236363.110805 600412.35884 0  236738.107995 599162.356577 0  236525.607944 598482.2412899999 0  236138.109208 599362.357613 0  235725.063048 600325.4466510001 0  235091.948926 601408.5220979999 0  235188.10921 600312.366344 0  234375.602405 600833.9674270001 0  234663.109308 599912.358011 0  234138.105122 600062.365644 0  233955.307245 599029.561063 0  233338.103791 598387.401556 0  233988.09795 597862.356384 0  235138.101489 596637.3947750001 0  235563.1039 595387.392428 0  236513.103639 594212.356312 0  237163.10684 592987.3929869999 0  238313.103031 591862.3515540001 0  239513.107028 590812.3512640001 0  240638.102135 589787.387271 0  241463.109549 588587.378486 0  242294.489816 587443.735215 0  242913.101099 586512.341804 0  243544.066915 585474.859604 0  243040.448415 585184.975583 0  242438.10214 585337.38015 0  241313.102353 586562.339499 0  240538.107104 587787.382449 0  240114.641085 588588.939407 0  239388.100256 589437.382238 0  238188.104456 590512.346358 0  236938.100507 591362.349798 0  235813.10453 592537.396388 0  234864.502938 593178.7753880001 0  234463.097651 592862.357267 0  235113.0965 591662.3545979999 0  235713.101522 590412.346099 0  235777.688431 589976.7582779999 0  234943.583145 590706.265132 0  234462.482256 591490.2841159999 0  233801.497784 592112.940187 0  233388.099101 591787.394208 0  234013.093099 590437.393065 0  234776.217248 587148.7548100001 0  235163.093726 586562.3486189999 0  235313.098918 585483.229012 0  235250.59732 584662.298153 0  235588.093896 583337.379493 0  236329.432041 582199.858992 0  237188.096234 581462.3349939999 0  237463.088521 580212.335511 0  238350.592558 579057.652616 0  238591.415797 578574.847681 0  238313.094106 577612.328905 0  239229.696732 577695.769664 0  240195.161018 577513.008613 0  240614.996733 577149.8518770001 0  240663.091715 577412.332622 0  240288.092486 578662.334085 0  239942.357258 579508.095811 0  240438.100019 580212.3334220001 0  241338.095553 580387.375355 0  241238.099828 579137.369157 0  241788.097003 577887.370889 0  241983.554649 577241.9220939999 0  242054.178239 576927.8105029999 0  242588.100699 575737.366175 0  243149.324833 574898.583978 0  243695.278626 573919.517981 0  244268.494418 573724.8454239999 0  244995.134063 573930.2767810001 0  245417.314363 573391.601898 0  243450.599125 571859.479773 0  245776.797908 572599.8353060001 0  246779.639852 572973.285167 0  248034.741935 573186.082054 0  249413.10651 573162.3205520001 0  250496.922226 573271.1521899999 0  251613.105126 573237.3551319999 0  252421.824577 572846.032906 0  253256.245022 572580.4733130001 0  253739.471933 571960.9547369999 0  254174.511864 572149.8346569999 0  254484.944333 571684.194807 0  254384.108649 570891.346712 0  254344.002752 570218.26407 0  255025.609604 570829.0294979999 0  255715.005913 570489.264586 0  256218.846343 570774.828355 0  256834.349083 570508.5908 0  257390.092515 570014.308325 0  257624.431042 568493.478911 0  259355.811717 569380.021819 0  260033.372814 569617.066669 0  262679.741751 570320.699974 0  263289.115756 569524.817815 0  263463.114338 570512.301061 0  264638.198419 570687.3443539999 0  265058.220065 571334.378467 0  265447.561421 572077.90485 0  265488.125257 573137.3446020001 0  265131.937715 573963.293593 0  265432.389648 575093.068786 0  265638.122314 576338.029955 0  265750.630817 577371.8281319999 0  265738.570663 578561.9098850001 0  265875.630866 579139.630549 0  266213.129247 579862.311842 0  266563.130472 581112.314509 0  266238.135356 582362.310259 0  265938.12863 583612.320897 0  265738.131342 584762.3210189999 0  266875.638633 585365.358768 0  264018.7239399826 593650.4646671159 0  262236.3944351029 595831.1252656333 0  241846.246678 605206.1436625 0  240200.622106 608424.8903290001 0  240943.4862974102 610939.7757535663 0  236550.6094 599787.3577085 0  238528.1212051503 608102.9081793013 0  244413.4891967989 572609.5960859474 0  236382.0474488751 598808.3067022427 0  235369.601910944 600933.5380148316 0  235413.099011 591037.3503485 0  235446.2251831186 590266.6553871984 0  240475.5921005 578037.3333535 0  240413.173949154 577324.4280286073 0  240574.037899 606283.0066440001 0  263857.9179445 593618.2891454998 0  264153.4303974913 593343.916675058 0  242042.1833925 604946.7714812499 0  241650.3099635 605465.51584375 0  244613.6985165 572229.6575395 0  236631.8579695 598822.2989335 0  235140.029068 600860.444221 0  241767.7287175 604874.0596705 0  242140.15174975 604817.0853906251 0  234781.8558075 600573.1668855001 0  242091.167571125 604881.9284359375 0  234519.3558565 600373.162719 0  254604.8337712102 583989.0014118921 0  250699.5846056537 594617.3297041012 0  250540.4796469513 602258.2940568649 0  248483.7490186612 580334.7345534252 0  258549.2190328319 577893.951823392 0  257067.0067473103 590016.5327808241 0  243285.0921999099 596333.923437875 0  248333.1386145258 589098.0389905117 0  256142.8445072741 595883.3911551933 0  260245.1368072523 583315.2785712298 0  253472.3380211276 578932.2908163272 0  246432.3347504817 599884.5019511909 0  261555.9240922556 588041.186709004 0  247293.1100123104 605823.8307887657 0  246458.2798550911 593168.8646574575 0  252840.0183145193 588226.5564648228 0  249828.2874404451 584740.7888937403 0  255409.5660975206 600458.8956828594 0  260819.9733392385 574219.403683011 0  252584.2262054711 605722.6603825617 0  254049.8830611471 592547.4852571967 0  250015.4356193061 598425.2225922942 0  245872.072249477 577604.9761853142 0  262002.1583249522 579753.4663046852 0  257732.6630933878 586227.970805314 0  250242.5556457866 577017.3316409125 0  244921.6453001869 581816.6358421432 0  256520.3890639471 580904.824006648 0  240779.0970645865 599524.6679555867 0  257100.1829219198 574459.5922545703 0  239912.2630002034 595231.1172704464 0  244703.0875078634 590068.6945953515 0  242549.5490268674 592874.3693043783 0  251586.0465921376 581796.2215047925 0  246643.189997516 596527.447801719 0  251049.7658069622 591057.6752245198 0  253014.5731561695 596998.6601086652 0  238680.2197353724 584542.2309791476 0  259715.365803504 591937.1938619445 0  254097.157218761 575731.4494927844 0  246806.6408589328 586139.0877599345 0  246136.1179750556 602959.471719323 0  253520.7033332401 602835.180253843 0  244125.4295793909 607538.9817227355 0  252546.8895354472 599881.3279113505 0  258289.0983523553 600397.640191779 0  247518.7952199645 583037.3718217331 0  263140.3959879661 582529.2228421422 0  262894.8586894067 585442.3590432997 0  256968.6320599076 593040.7691844478 0  243573.0187527719 600218.2795730785 0  258888.5766127351 595139.7745218446 0  262588.7569809347 576734.8569237856 0  259318.4257992262 580601.2540325444 0  249963.3812725965 607065.7205847671 0  257494.5307999607 583482.5893534871 0  258906.4757205145 572278.8089438241 0  237751.446593475 587300.5805003279 0  255142.4708720699 604956.7580261135 0  258485.4978753244 597756.9250383095 0  255516.7820591553 587791.39641967 0  239758.4692108706 601926.8203218657 0  255873.0092222999 577739.5085867504
[...]
<PointData  Scalars="f_24704-0"> 
<DataArray  type="Float64"  Name="f_24704-0"  format="ascii">9.2887513712565098e+06  9.3391947545275409e+06  9.3924134658538941e+06  9.4339873110690285e+06  9.4592906541763488e+06  9.4964195095617119e+06  9.5125403013158906e+06  9.5307288918780722e+06  9.5292436585307885e+06  9.5285071481780093e+06  9.5344540207933262e+06  9.5310844929007459e+06  9.5274735381630380e+06  9.5771587421333995e+06  9.6314580904597417e+06  9.6899101568591911e+06  9.7849471890437901e+06  9.9095615099773016e+06  9.9295122882532198e+06  9.9459382655429915e+06  1.0038493226007091e+07  1.0115273626170997e+07  1.0208274502804639e+07  1.0264014184922928e+07  1.0290168232847815e+07  1.0347239280045455e+07  1.0364651723362630e+07  1.0391150760375520e+07  1.0446604782813499e+07  1.0486730773360869e+07  1.0498362460477034e+07  1.0531613296970868e+07  1.0626647326173339e+07  1.0711461615975756e+07  1.0727176322829310e+07  1.0792796801202361e+07  1.0862440291079391e+07  1.0922205264048385e+07  1.0959718728541531e+07  1.0990320592101747e+07  1.1035447624036701e+07  1.1080140813259296e+07  1.1122603302581329e+07  1.1162683820203230e+07  1.1199983624726415e+07  1.1207913631284872e+07  1.1228042214581499e+07  1.1252770236498777e+07  1.1270964597610462e+07  1.1278959005705729e+07  1.1280633220806872e+07  1.1282215673777835e+07  1.1281827254993452e+07  1.1284638940217664e+07  1.1291329541294672e+07  1.1290800864668867e+07  1.1290814441905858e+07  1.1293258752250744e+07  1.1285934355900414e+07  1.1258587897450868e+07  1.1221238107984550e+07  1.1185445707287796e+07  1.1119472820666095e+07  1.0997044927070636e+07  1.0965856728134340e+07  1.1053245871826515e+07  1.1083618227061685e+07  1.1091821797793785e+07  1.1100142365646096e+07  1.1113367534218505e+07  1.1131960104416654e+07  1.1199218570531376e+07  1.1220768708679669e+07  1.1230777412529267e+07  1.1232778443802850e+07  1.1221960558304241e+07  1.1189335164394015e+07  1.1150664568006629e+07  1.1096364075627040e+07  1.1082893177556761e+07  1.1084229343611276e+07  1.1088805958303995e+07  1.1090068220308855e+07  1.1086980473307600e+07  1.1085104192018738e+07  1.1082260920725023e+07  1.1070359992500832e+07  1.1038528785024984e+07  1.0987488786301382e+07  1.0969353134085068e+07  1.0996608490954202e+07  1.1009842902339328e+07  1.1014205710717095e+07  1.1010638373354344e+07  1.1012207232772237e+07  1.1008462339982830e+07  1.1007685988411490e+07  1.1002368132878510e+07  1.0999745223977882e+07  1.0993436931824762e+07  1.0940318686081609e+07  1.0877989618448496e+07  1.0784996325951215e+07  1.0680156752292935e+07  1.0531270556031531e+07  1.0319567575119739e+07  1.0052024061808227e+07  9.7744396922637783e+06  9.5426439182125293e+06  9.3936833058139086e+06  9.3040424526149631e+06  9.3687010366887357e+06  9.5029396488585435e+06  9.8351406328789797e+06  1.0063168453114433e+07  1.0155341437944438e+07  1.0235573007137695e+07  1.0321257149497263e+07  1.0377112459027169e+07  1.0413468205873640e+07  1.0421205166130833e+07  1.0421278952516899e+07  1.0409330671324842e+07  1.0376570494927865e+07  1.0365338956196088e+07  1.0391399353559976e+07  1.0406985214171974e+07  1.0411839465307487e+07  1.0411834367373778e+07  1.0395916041080792e+07  1.0289371248896843e+07  1.0252546396084933e+07  1.0188814379051166e+07  1.0150706175649267e+07  1.0096165301811235e+07  1.0036362471507417e+07  9.9718154131505787e+06  9.9337436661581658e+06  9.9308059660224225e+06  9.9437239089135602e+06  9.9552296986012030e+06  9.9546367650711071e+06  9.9595408994708825e+06  9.9617765199398026e+06  9.9615033426158335e+06  9.9445075399138648e+06  9.8890467377100438e+06  9.7441611524158474e+06  9.4638599286603034e+06  9.2756718169526514e+06  9.1703544557972290e+06  9.1271991947291195e+06  9.1119052440512404e+06  9.0580576270726807e+06  9.0199405633605365e+06  8.9881205322350934e+06  8.9729258994246367e+06  8.9198288544586170e+06  8.8818093123854138e+06  8.9466547963337395e+06  8.8796946209336091e+06  8.7827606699512973e+06  8.5941065469610896e+06  8.3931799506459460e+06  8.2792897112069298e+06  8.2294364524210393e+06  8.2591119715025406e+06  8.3377218148431135e+06  8.4108804791563507e+06  8.4561334121931456e+06  8.5641924825631976e+06  8.6293434258624855e+06  8.6371096142095346e+06  8.6389218092109766e+06  8.6728022496482823e+06  8.7056680887439586e+06  8.7814460582525544e+06  8.8626412557699438e+06  8.9139149811133035e+06  8.9152037953860480e+06  8.9245157318609804e+06  8.9805112938922159e+06  8.9918151413732264e+06  8.9897512628410272e+06  8.9958422637766711e+06  8.9933437075716928e+06  8.9855972261609305e+06  8.9666593639220707e+06  8.9323340735771861e+06  8.8828494464151710e+06  8.8401100275438912e+06  8.8104846035525110e+06  8.7881395275404043e+06  8.7924587677087709e+06  8.8144737776615769e+06  8.8568603297134694e+06  8.9081645829368588e+06  9.0018189985792525e+06  9.1470641537003946e+06  9.2478453603199963e+06  9.5336553364586905e+06  9.9333538130507227e+06  1.1156897328354547e+07  1.1275397579823663e+07  1.1290497486257259e+07  1.1014727247096479e+07  1.1229931308530755e+07  8.9303251885975227e+06  1.0982204665028516e+07  1.1013335835181965e+07  1.0395428315229090e+07  1.0375321095707143e+07  9.9571361373066306e+06  9.9613128120363243e+06  1.1171421187349416e+07  9.5336599250099212e+06  9.5317106235614177e+06  1.1139307702682329e+07  1.1172448259091079e+07  8.9303269025765974e+06  1.0973812636871042e+07  1.1013338257180428e+07  1.1093088240623614e+07  1.1129729220288498e+07  1.1011547270488402e+07  1.1134589775389250e+07  1.1011525418643737e+07  8.3620215027813911e+06  9.6124709384093937e+06  1.0532474945644485e+07  8.4496284918931350e+06  8.0987175591323413e+06  8.5849159989554286e+06  1.0495828148000415e+07  9.0149285084998216e+06  9.7721982368424460e+06  8.6257546153777707e+06  7.9829365606229138e+06  1.0450324487807790e+07  9.1213487965665068e+06  1.1002828314023595e+07  9.7206558219736200e+06  8.3741859250425538e+06  8.8231920851343013e+06  1.0185570865968091e+07  8.7118793338858169e+06  1.0842501041927740e+07  9.1775907757125311e+06  1.0020438042639162e+07  8.7216563639624156e+06  8.4182353298639227e+06  8.3228837660310529e+06  8.1184324182141488e+06  8.9894423067099415e+06  8.3205688336379714e+06  1.0892520382690651e+07  8.4157518392392937e+06  1.0670742288572490e+07  9.4504130604477506e+06  1.0180351468364652e+07  8.5093058399772123e+06  1.0168287236864101e+07  8.9851440370453279e+06  9.8250159404182769e+06  9.9628277996577341e+06  9.3394703110647630e+06  8.0013533063613959e+06  9.0653971406659242e+06  1.0799662128105007e+07  1.0546948184930440e+07  1.1186966860264534e+07  1.0154142693969278e+07  1.0285869402640373e+07  8.8479787999386303e+06  8.7343706451768298e+06  9.0483153177880608e+06  9.2958521126400102e+06  1.0768132080200512e+07  9.7722439620995279e+06  8.6477423185245264e+06  8.3311856408030391e+06  1.0992484776884612e+07  8.4350107890835274e+06  8.7824573505468164e+06  1.0200385756408708e+07  1.0727841441671586e+07  1.0053447345287297e+07  8.0596177718654871e+06  1.1027603604112945e+07  7.9958061083153700e+06  9.3789077964119427e+06  9.4344768732972462e+06  9.4261116121713966e+06  9.0266285512170773e+06  8.3698638570352774e+06  9.2934911822706927e+06  8.5506244799227081e+06  8.2244984279242652e+06  8.5103286303208023e+06  8.8212207167171184e+06  8.7115964963221308e+06  1.1143285391658690e+07  1.0814190344183881e+07  8.5826130087701455e+06  1.1044335279676927e+07  1.0496676504703579e+07  1.0320334938809386e+07  1.0871897600003721e+07  9.8243870335370079e+06  9.1148825633207280e+06  9.9214281663439292e+06  1.0443080511338502e+07  8.7717070253294241e+06  1.0721587026484242e+07  8.1990150665303087e+06  9.5808031172566656e+06  8.9240916838722471e+06  8.3597834715068946e+06  9.8114669332937803e+06  1.0723662920149641e+07  9.2888093334034812e+06  1.0138227812336087e+07  9.2398265776496325e+06  1.0444440389556769e+07  8.3814700824647807e+06  8.6252461869234871e+06  8.6618940828575399e+06  1.0844801434622278e+07  9.7737356564034410e+06  8.6894248319682665e+06  1.0930819281924792e+07  9.3060469921678882e+06  1.0989520987467423e+07  8.8390491708731521e+06  1.1142128840306602e+07  1.1134178836457323e+07  9.0131094060288109e+06  9.5060658485017177e+06  1.1137530312680278e+07  1.1199380225352114e+07  1.0947411239987513e+07  1.0981646213323902e+07  1.0351902787262116e+07  8.5194275001902580e+06  1.0865662956630243e+07  1.0748171777805161e+07  9.0909390724770352e+06  9.5052017921451293e+06  9.4055881790978573e+06  1.1182011115022589e+07  1.1132368644679405e+07  9.6726296154574919e+06  1.1065625294680970e+07  1.1066376676007127e+07  1.1101124367558522e+07  1.1204464854227087e+07  9.2451919309999552e+06  8.7601868077787738e+06  1.0357802653121090e+07  8.7019763553855494e+06  9.4609384296820182e+06  8.7319706124756988e+06  1.0280502498494601e+07  1.1267512911451317e+07  1.0117061906381786e+07  1.0376147739238046e+07  1.0956782366202049e+07  9.4194162215936780e+06  8.8835700661858357e+06  1.0364935604054144e+07  8.1211558964641327e+06  8.9723892804960832e+06  1.0978852966684932e+07  1.0930808259834377e+07  9.8800397305696551e+06  1.1267921703632638e+07  8.2595286971268458e+06  1.1023412075614613e+07  1.0055237427664809e+07  8.9712654913619924e+06  8.5193010898961052e+06  8.2660853234106693e+06  1.0474144114362160e+07  1.0934572794560576e+07  1.0887453859518697e+07  1.0293199233026903e+07  1.1165644624462428e+07  9.8366883369147144e+06  8.9088060365162268e+06  8.9097358799541891e+06  8.8135809856698345e+06  1.1137016066479139e+07  1.1148353546629155e+07  1.1152922674431751e+07  1.0730594968903197e+07  1.0902277245844383e+07  1.1166709990420235e+07  1.1096618590429213e+07  1.0135168126093373e+07  1.1288926662723713e+07  1.1287038248676974e+07  9.6559466889933608e+06  8.7735022588198315e+06  9.9242730560951401e+06  1.0961808544115832e+07  9.6072404261841550e+06  9.9884654645079691e+06  1.1274217996977353e+07  9.6879130209988896e+06  1.0535612703981841e+07  8.9842170864926185e+06  9.1116996182820313e+06  9.0833932986735683e+06  9.1396779619999193e+06  1.0999333254322693e+07  9.5048392238006480e+06  9.5268345140413698e+06  9.4804164163786210e+06  9.5213790610390101e+06  9.4424861325722449e+06  8.9691054035768844e+06  8.9090046607040912e+06  9.4913475475280657e+06  9.0499884425333664e+06  1.0418859460992023e+07  1.0418113414384011e+07  1.1282583911407392e+07  9.8355511009707768e+06  9.5323882358775064e+06  9.1941866739310976e+06  9.2262004526523165e+06  9.2864919905351754e+06  9.4310091713547222e+06  9.3076593245324790e+06  9.4026938753641155e+06  9.6739240535767227e+06  9.4480450655433107e+06  9.5816971484778449e+06  9.8735768223677576e+06  9.7165324800636899e+06  9.2386256816784199e+06  9.4782198310681917e+06  8.4832922237482127e+06  8.5631838582195528e+06  8.4331860327328648e+06  8.3322036884317920e+06  8.3416966109829014e+06  8.2422484162630504e+06  8.2785324482456017e+06  8.2317071573091205e+06  8.2422762637129081e+06  8.3201754396191230e+06  8.8412564573426116e+06  8.8243765324400514e+06  8.8201463419316970e+06  8.7965709270149749e+06  8.8037376358630713e+06  8.7884021210592240e+06  8.7725823408921864e+06  8.7852261142677609e+06  8.8026500358754676e+06  8.7746950626349710e+06  8.7822795127925761e+06  8.7843939654176515e+06  8.8109707723023873e+06  8.8707667278509010e+06  8.8287831609869432e+06  8.1990584697646750e+06  8.4013727653804496e+06  8.3475941118139485e+06  8.2778060913096815e+06  9.7986026212378144e+06  9.7107380776377451e+06  9.5275617508265916e+06  9.6940632275533583e+06  1.0352803421529910e+07  1.0686254037781129e+07  1.0420969719777169e+07  1.0621122317268636e+07  8.6442378452327717e+06  8.3582810343271466e+06  8.3625924437763244e+06  8.4929827682161424e+06  8.2557482560213087e+06  8.1507669088110868e+06  8.2039347728828397e+06  8.1871926636348264e+06  8.0348054283347670e+06  8.2073837181170806e+06  8.9964473882510215e+06  8.9362385735139232e+06  8.2624046585504822e+06  8.5013150655253306e+06  8.5979580523881614e+06  1.0590388645250535e+07  1.0349241028822443e+07  8.9660358762170486e+06  9.0151932233545687e+06  9.1575572066121474e+06  8.9014965499756392e+06  9.1315262541478630e+06  9.0806206779016536e+06  9.5017148167093676e+06  9.7909877344312891e+06  9.6643976327769049e+06  8.4464176006814279e+06  8.6610275653139856e+06  8.8341451632707976e+06  8.4719910542154107e+06  7.9423135367096467e+06  8.1698828687098809e+06  8.2444479969011918e+06  7.8710219942528438e+06  7.9652995747673577e+06  8.1940634528678255e+06  8.0665231203573151e+06  1.0208028540006921e+07  1.0615482150007717e+07  1.0355374363291280e+07  1.0674207248920280e+07  1.0911660464259693e+07  9.9843253455045652e+06  9.4920845752486512e+06  9.9292022397730760e+06  9.7290385268957540e+06  8.1532094183115009e+06  8.4059645314412899e+06  8.5733057910462394e+06  8.2264858107324438e+06  1.0364073891221860e+07  1.0143323962048061e+07  1.0237463509721179e+07  1.0030037786785319e+07  8.5600711504301690e+06  8.6575560775629524e+06  9.0719631304165386e+06  9.1965563082772642e+06  8.8746144987783153e+06  1.0054715578404356e+07  9.8983366178015694e+06  1.0174821598919120e+07  9.8927606984093133e+06  8.8537808479802851e+06  8.6184501796326600e+06  8.5215907713684365e+06  8.6455995677206982e+06  8.7476873816816080e+06  8.8875316727027278e+06  8.5228944760058355e+06  8.5133494794349819e+06  8.3237720896525057e+06  8.3675183606824186e+06  8.5484390151479449e+06  8.5869695344589781e+06  8.3753064411696792e+06  8.1111436658291863e+06  8.4782989237734117e+06  8.0713100489893425e+06  7.9200572321219742e+06  8.1231297263995633e+06  8.2962223387794429e+06  8.2502211104560103e+06  8.0232054157891208e+06  8.1739084558492657e+06  8.8788904712302033e+06  9.2333429073879458e+06  8.9882824710296970e+06  8.7980359599321373e+06  8.3268287837597942e+06  8.4184128038620781e+06  8.1179698282852126e+06  8.3359825221085148e+06  8.2009051009269347e+06  8.6225048417032193e+06  8.1356005915778317e+06  8.3740602180503551e+06  8.4724017137244064e+06  8.5774533554003797e+06  8.3405396662086742e+06  9.3352383580818605e+06  9.3207514489547405e+06  9.5959365345397219e+06  9.6478754642100781e+06  1.0151819942451058e+07  8.4239955148836132e+06  8.3702662949001119e+06  9.9884526802068837e+06  9.2001225424465034e+06  8.7973344074838366e+06  8.7859152052291948e+06  9.1399113952066693e+06  9.9641089028978553e+06  9.8703474716744181e+06  9.8806172846221533e+06  9.8348304991491754e+06  9.2923214425890371e+06  9.0202377759994660e+06  7.9736071920265816e+06  8.0491187424898138e+06  8.1287281663262853e+06  8.9515496265664380e+06  9.1315669867318086e+06  1.0550884712737028e+07  1.0748934114997709e+07  1.0354775067313086e+07  1.0687542635221196e+07  1.0482481997682843e+07  1.0246304611705035e+07  9.9936521305538248e+06  1.0101668561785895e+07  8.6870180624730233e+06  8.6816577865401804e+06  8.8857573544992749e+06  9.5132992671236154e+06  8.5161343913461044e+06  8.6810154744844139e+06  8.7200673375484180e+06  8.4530647686254960e+06  8.5752447075615339e+06  8.2463816067632036e+06  8.2817894572234554e+06  8.0578597006638376e+06  9.1201180738078617e+06  9.3264700533288568e+06  9.4227068960971814e+06  9.5395136187019274e+06  9.5543068059370443e+06  9.3536183410436679e+06  9.3416839109736830e+06  8.8259371363526992e+06  8.4946364400361963e+06  8.2600073317423547e+06  8.4589522491830494e+06  8.4244598575405236e+06  8.3752759524938101e+06  8.7681607002187409e+06  8.6520484009000510e+06  8.4188290503667835e+06  1.0519577105856095e+07  8.4667045951499678e+06  8.4620439798830207e+06  9.1978279289885834e+06  9.4988215930600110e+06  9.9638049649321586e+06  9.7938638702943977e+06  8.7073916925031915e+06  8.8001394433129765e+06  8.3957288842244502e+06  9.3259181188577749e+06  8.7434116768014170e+06  9.5470064762264881e+06  8.1369401830179375e+06  8.1769047777358647e+06  9.6615665308911931e+06  8.2009619133643704e+06  9.7476286549780946e+06  8.1696591234641494e+06  8.0942829436649755e+06  8.1202884421218149e+06  8.0612546556047145e+06  8.1892114663692964e+06  9.0918582759847995e+06  7.9305847119294396e+06  8.1014959095745739e+06  8.0089063973965570e+06  1.0481144429205263e+07  8.6929141616766118e+06  8.2553118345966814e+06  8.2869619569276934e+06  8.3946708723540790e+06  8.5494506908977106e+06  9.9014770552324932e+06  9.9434338368420042e+06  8.3949815004210491e+06  8.4551133856486175e+06  8.2182639002336822e+06  8.1552174810441677e+06  7.9955554218711080e+06  8.8253115672374405e+06  8.9581073163394537e+06  9.0900373820516299e+06  8.8576322836039830e+06  9.1623198956290912e+06  7.9266600003640167e+06  8.0952584989705514e+06  8.0205926880068434e+06  8.0626456089659650e+06  1.0067266383194240e+07  8.2590657280138349e+06  8.3300631947481753e+06  8.3998461984170340e+06  8.1398792450571517e+06  8.0848780506941834e+06  8.1315725834492594e+06  8.1302592915490931e+06  7.9785863800757583e+06  8.0360875711027430e+06  7.9805976590572884e+06  8.4892366588837039e+06  1.0254268771727456e+07  1.0328714936471805e+07  1.0427316009948874e+07  9.7549051379248463e+06  9.9452481917703412e+06  8.3171027754337704e+06  8.3514547969954917e+06  8.2976227362400992e+06  8.4078390854628589e+06  9.3847513538581394e+06  9.1475906415875200e+06  9.2074856710933428e+06  8.2767139526756117e+06  8.2901011409366662e+06  8.3623703212029869e+06  8.6255645988981184e+06  8.7060868950876500e+06  8.6321429640214872e+06  8.5329521413740329e+06  9.6310708427960575e+06  8.7581300190490838e+06  8.7033333326652609e+06  8.7345898090374433e+06  9.4956453429215010e+06  9.4820069731474798e+06  9.4811753978782389e+06  8.1358724740604889e+06  8.2145892600846579e+06  8.3133378326386046e+06  8.2311026616724748e+06  8.7800413376085348e+06  8.7304850650709420e+06  9.6304519638404027e+06  9.7696718395847362e+06  9.6907497170688864e+06  9.6193510347974263e+06  9.6165737887494322e+06  9.6702571709222142e+06  9.5615656885293610e+06  8.4050178837197870e+06  8.7669185448660757e+06  8.1305532717330698e+06  9.8391815306621697e+06  8.4212303333082926e+06  8.4028904677998237e+06  8.2123920714568812e+06  8.0677057608232815e+06  8.2639097311391421e+06  8.2484443639627229e+06  8.0498264268041858e+06  8.0629921362927034e+06  8.4029263766199313e+06  8.2496750919208862e+06  8.4294596620298680e+06  9.0615138571745232e+06  9.1315614608592633e+06  8.4676219342511445e+06  8.5712033514906578e+06  7.8604606256662831e+06  7.8988674368336275e+06  8.1525039111092519e+06  7.8614557932620710e+06  8.0440989048709003e+06  7.9399983099779040e+06  8.2210804656269643e+06  1.0445976755022960e+07  8.1803391993570672e+06  8.3138653399176179e+06  8.3425673833856536e+06  1.0071938072440680e+07  1.0062471383057285e+07  1.0001346634149477e+07  8.5767314899994731e+06  8.7280845961917304e+06  8.5451688410886154e+06  8.2705985549484044e+06  8.7256892723417301e+06  8.8013068551505730e+06  8.0700728845384885e+06  8.1615641044718847e+06  9.4567780840650219e+06  9.4115205391685292e+06  9.5392426372342091e+06  8.0845944367051795e+06  8.7148507762906291e+06  </DataArray> 
</PointData> 
</Piece>
</UnstructuredGrid>
</VTKFile>