<?xml version="1.0"?>
<VTKFile type="UnstructuredGrid"  version="0.1"  >
<UnstructuredGrid>
<Piece  NumberOfPoints="784" NumberOfCells="1320">
<Points>
<DataArray  type="Float64"  NumberOfComponents="3"  format="ascii">266913.131276 586512.314988 0  266738.13716 587762.325998 0  266363.132677 589012.328643 0  266175.641078 590169.601714 0  265666.575631 591040.7699119999 0  264875.64001 591687.766419 0  264900.636161 591845.049083 0  266088.14152 592012.3229499999 0  265561.959259 592661.17101 0  264288.136855 593037.368683 0  263865.194033 593999.8486949999 0  263850.641856 593236.729596 0  263625.634872 592756.525286 0  262689.574249 593299.848918 0  262475.636737 594003.0907310001 0  261934.554452 594340.929792 0  261725.631329 594932.094409 0  261729.256443 595728.498809 0  262138.136044 595012.330523 0  262288.141035 596262.333669 0  261488.994028 597511.480605 0  261234.15567 598316.338928 0  260815.635063 599014.863821 0  261400.643658 599389.7367680001 0  261322.963374 600022.185065 0  261119.455248 600931.061306 0  261607.436504 601293.0629359999 0  260807.446929 602089.899812 0  260025.642878 602988.868697 0  259613.135827 603937.3854499999 0  259050.643123 604100.987861 0  258411.880065 603988.6335979999 0  257764.357469 604449.872569 0  257971.239668 605320.429125 0  258041.396867 605740.635381 0  257188.143339 606987.394312 0  256038.141198 608112.3554550001 0  254788.141633 609087.4026939999 0  253588.140656 609812.362881 0  252338.135706 609737.4048949999 0  251088.138116 609787.404055 0  249963.12851 610287.399466 0  248613.130524 610462.365857 0  247363.132198 610687.407659 0  246113.130532 610837.411551 0  245832.347438 610918.209918 0  245016.946433 610958.5639439999 0  244313.129646 610762.372259 0  244400.622144 611378.093316 0  243939.669208 612460.8930899999 0  242960.649733 611984.892792 0  242170.381438 611919.647351 0  241888.122919 611112.375656 0  241393.380757 610467.6456149999 0  240594.157528 611306.369822 0  240525.621947 610804.648112 0  240363.123632 610512.3745050001 0  239113.123247 610262.374278 0  239813.12126 609037.412459 0  240588.122952 607812.368199 0  241013.119545 606625.9534560001 0  241454.373249 605724.888025 0  242238.120107 604687.3993 0  243088.121248 603462.362766 0  242860.319451 603007.3932640001 0  241563.116617 603812.361344 0  241778.400913 604327.642217 0  242059.837234 604824.879102 0  241475.620201 604923.2402390001 0  241462.182234 605449.881372 0  240906.219606 605674.888222 0  240241.856192 606891.125066 0  239891.734044 607841.012479 0  239048.653431 608724.889805 0  238118.054545 608974.895967 0  238888.111029 607337.406468 0  239738.119992 606212.362729 0  240288.12044 605687.4075229999 0  240380.212307 604729.521696 0  239347.309632 604603.204501 0  238888.112036 604387.408787 0  237913.11173 604687.401386 0  236784.172023 604499.882783 0  236883.408793 603717.08334 0  236154.933927 603595.565605 0  235688.103943 602912.369264 0  235763.108033 601662.366516 0  236363.110805 600412.35884 0  236738.107995 599162.356577 0  236525.607944 598482.2412899999 0  236138.109208 599362.357613 0  235725.063048 600325.4466510001 0  235091.948926 601408.5220979999 0  235188.10921 600312.366344 0  234375.602405 600833.9674270001 0  234663.109308 599912.358011 0  234138.105122 600062.365644 0  233955.307245 599029.561063 0  233338.103791 598387.401556 0  233988.09795 597862.356384 0  235138.101489 596637.3947750001 0  235563.1039 595387.392428 0  236513.103639 594212.356312 0  237163.10684 592987.3929869999 0  238313.103031 591862.3515540001 0  239513.107028 590812.3512640001 0  240638.102135 589787.387271 0  241463.109549 588587.378486 0  242294.489816 587443.735215 0  242913.101099 586512.341804 0  243544.066915 585474.859604 0  243040.448415 585184.975583 0  242438.10214 585337.38015 0  241313.102353 586562.339499 0  240538.107104 587787.382449 0  240114.641085 588588.939407 0  239388.100256 589437.382238 0  238188.104456 590512.346358 0  236938.100507 591362.349798 0  235813.10453 592537.396388 0  234864.502938 593178.7753880001 0  234463.097651 592862.357267 0  235113.0965 591662.3545979999 0  235713.101522 590412.346099 0  235777.688431 589976.7582779999 0  234943.583145 590706.265132 0  234462.482256 591490.2841159999 0  233801.497784 592112.940187 0  233388.099101 591787.394208 0  234013.093099 590437.393065 0  234776.217248 587148.7548100001 0  235163.093726 586562.3486189999 0  235313.098918 585483.229012 0  235250.59732 584662.298153 0  235588.093896 583337.379493 0  236329.432041 582199.858992 0  237188.096234 581462.3349939999 0  237463.088521 580212.335511 0  238350.592558 579057.652616 0  238591.415797 578574.847681 0  238313.094106 577612.328905 0  239229.696732 577695.769664 0  240195.161018 577513.008613 0  240614.996733 577149.8518770001 0  240663.091715 577412.332622 0  240288.092486 578662.334085 0  239942.357258 579508.095811 0  240438.100019 580212.3334220001 0  241338.095553 580387.375355 0  241238.099828 579137.369157 0  241788.097003 577887.370889 0  241983.554649 577241.9220939999 0  242054.178239 576927.8105029999 0  242588.100699 575737.366175 0  243149.324833 574898.583978 0  243695.278626 573919.517981 0  244268.494418 573724.8454239999 0  244995.134063 573930.2767810001 0  245417.314363 573391.601898 0  243450.599125 571859.479773 0  245776.797908 572599.8353060001 0  246779.639852 572973.285167 0  248034.741935 573186.082054 0  249413.10651 573162.3205520001 0  250496.922226 573271.1521899999 0  251613.105126 573237.3551319999 0  252421.824577 572846.032906 0  253256.245022 572580.4733130001 0  253739.471933 571960.9547369999 0  254174.511864 572149.8346569999 0  254484.944333 571684.194807 0  254384.108649 570891.346712 0  254344.002752 570218.26407 0  255025.609604 570829.0294979999 0  255715.005913 570489.264586 0  256218.846343 570774.828355 0  256834.349083 570508.5908 0  257390.092515 570014.308325 0  257624.431042 568493.478911 0  259355.811717 569380.021819 0  260033.372814 569617.066669 0  262679.741751 570320.699974 0  263289.115756 569524.817815 0  263463.114338 570512.301061 0  264638.198419 570687.3443539999 0  265058.220065 571334.378467 0  265447.561421 572077.90485 0  265488.125257 573137.3446020001 0  265131.937715 573963.293593 0  265432.389648 575093.068786 0  265638.122314 576338.029955 0  265750.630817 577371.8281319999 0  265738.570663 578561.9098850001 0  265875.630866 579139.630549 0  266213.129247 579862.311842 0  266563.130472 581112.314509 0  266238.135356 582362.310259 0  265938.12863 583612.320897 0  265738.131342 584762.3210189999 0  266875.638633 585365.358768 0  264018.7239399826 593650.4646671159 0  262236.3944351029 595831.1252656333 0  241846.246678 605206.1436625 0  240200.622106 608424.8903290001 0  240943.4862974102 610939.7757535663 0  236550.6094 599787.3577085 0  238528.1212051503 608102.9081793013 0  244413.4891967989 572609.5960859474 0  236382.0474488751 598808.3067022427 0  235369.601910944 600933.5380148316 0  235413.099011 591037.3503485 0  235446.2251831186 590266.6553871984 0  240475.5921005 578037.3333535 0  240413.173949154 577324.4280286073 0  240574.037899 606283.0066440001 0  263857.9179445 593618.2891454998 0  264153.4303974913 593343.916675058 0  242042.1833925 604946.7714812499 0  241650.3099635 605465.51584375 0  244613.6985165 572229.6575395 0  236631.8579695 598822.2989335 0  235140.029068 600860.444221 0  241767.7287175 604874.0596705 0  242140.15174975 604817.0853906251 0  234781.8558075 600573.1668855001 0  242091.167571125 604881.9284359375 0  234519.3558565 600373.162719 0  254604.8337712102 583989.0014118921 0  250699.5846056537 594617.3297041012 0  250540.4796469513 602258.2940568649 0  248483.7490186612 580334.7345534252 0  258549.2190328319 577893.951823392 0  257067.0067473103 590016.5327808241 0  243285.0921999099 596333.923437875 0  248333.1386145258 589098.0389905117 0  256142.8445072741 595883.3911551933 0  260245.1368072523 583315.2785712298 0  253472.3380211276 578932.2908163272 0  246432.3347504817 599884.5019511909 0  261555.9240922556 588041.186709004 0  247293.1100123104 605823.8307887657 0  246458.2798550911 593168.8646574575 0  252840.0183145193 588226.5564648228 0  249828.2874404451 584740.7888937403 0  255409.5660975206 600458.8956828594 0  260819.9733392385 574219.403683011 0  252584.2262054711 605722.6603825617 0  254049.8830611471 592547.4852571967 0  250015.4356193061 598425.2225922942 0  245872.072249477 577604.9761853142 0  262002.1583249522 579753.4663046852 0  257732.6630933878 586227.970805314 0  250242.5556457866 577017.3316409125 0  244921.6453001869 581816.6358421432 0  256520.3890639471 580904.824006648 0  240779.0970645865 599524.6679555867 0  257100.1829219198 574459.5922545703 0  239912.2630002034 595231.1172704464 0  244703.0875078634 590068.6945953515 0  242549.5490268674 592874.3693043783 0  251586.0465921376 581796.2215047925 0  246643.189997516 596527.447801719 0  251049.7658069622 591057.6752245198 0  253014.5731561695 596998.6601086652 0  238680.2197353724 584542.2309791476 0  259715.365803504 591937.1938619445 0  254097.157218761 575731.4494927844 0  246806.6408589328 586139.0877599345 0  246136.1179750556 602959.471719323 0  253520.7033332401 602835.180253843 0  244125.4295793909 607538.9817227355 0  252546.8895354472 599881.3279113505 0  258289.0983523553 600397.640191779 0  247518.7952199645 583037.3718217331 0  263140.3959879661 582529.2228421422 0  262894.8586894067 585442.3590432997 0  256968.6320599076 593040.7691844478 0  243573.0187527719 600218.2795730785 0  258888.5766127351 595139.7745218446 0  262588.7569809347 576734.8569237856 0  259318.4257992262 580601.2540325444 0  249963.3812725965 607065.7205847671 0  257494.5307999607 583482.5893534871 0  258906.4757205145 572278.8089438241 0  237751.446593475 587300.5805003279 0  255142.4708720699 604956.7580261135 0  258485.4978753244 597756.9250383095 0  255516.7820591553 587791.39641967 0  239758.4692108706 601926.8203218657 0  255873.0092222999 577739.5085867504
[...]
<PointData  Scalars="f_32-0"> 
<DataArray  type="Float64"  Name="f_32-0"  format="ascii">6.4444474963837946e+06  6.5216186131214192e+06  6.6045061988920290e+06  6.6688106462350786e+06  6.7085339894007435e+06  6.7659321558356555e+06  6.7891526092019472e+06  6.8137121255914737e+06  6.8119905499620037e+06  6.8140060472562416e+06  6.8221492462868001e+06  6.8180831538211862e+06  6.8168279458446903e+06  6.8973889869484715e+06  6.9758163975001592e+06  7.0585075595778497e+06  7.1900703902902277e+06  7.3597545955280326e+06  7.3858142754879426e+06  7.4091111275786823e+06  7.5399914407913638e+06  7.6488797594200587e+06  7.7808338638886670e+06  7.8590014498249916e+06  7.8959209522738969e+06  7.9766124368629167e+06  8.0010566640771618e+06  8.0392762832790921e+06  8.1189613125552172e+06  8.1762847250988549e+06  8.1931547867214261e+06  8.2412811807399383e+06  8.3751199436285850e+06  8.4918792624363471e+06  8.5133655843246318e+06  8.6036065505096540e+06  8.6997755075502228e+06  8.7824547353971880e+06  8.8348457712847907e+06  8.8785361502840351e+06  8.9429873467275687e+06  9.0063291259580906e+06  9.0667252947893254e+06  9.1238567160973474e+06  9.1771213719891887e+06  9.1884491648552772e+06  9.2172776318829916e+06  9.2527080127272122e+06  9.2786239676830750e+06  9.2900185774856824e+06  9.2924630512593612e+06  9.2947704186358321e+06  9.2943190841876231e+06  9.2985208665571846e+06  9.3080967792970501e+06  9.3073506151137240e+06  9.3073918771205954e+06  9.3109037017560732e+06  9.3005524031183757e+06  9.2623036878914293e+06  9.2110754389016945e+06  9.1631105553380288e+06  9.0773065417507868e+06  8.9219087519195527e+06  8.8758306781707313e+06  8.9785078585636299e+06  9.0187203764242027e+06  9.0297423303554021e+06  9.0412435346547626e+06  9.0595944272957090e+06  9.0858528279965445e+06  9.1814012869118750e+06  9.2121673905125223e+06  9.2264944729474057e+06  9.2293611833783817e+06  9.2138758186611962e+06  9.1673118737133350e+06  9.1123573488459159e+06  9.0354338126729298e+06  9.0153937982747220e+06  9.0167612504926473e+06  9.0226229881760590e+06  9.0242999289881643e+06  9.0200117793383505e+06  9.0172996166976523e+06  9.0132775464187339e+06  8.9965689875666406e+06  8.9520245124146882e+06  8.8810186177588850e+06  8.8565627158763446e+06  8.8960817943122126e+06  8.9152081832945254e+06  8.9215214098885078e+06  8.9163590976620018e+06  8.9186276879970860e+06  8.9132211114138458e+06  8.9121035774537735e+06  8.9044576722727176e+06  8.9006875128510073e+06  8.8916568263506312e+06  8.8161019386732299e+06  8.7283841610228550e+06  8.5995845950292703e+06  8.4564856607185192e+06  8.2591111261886396e+06  7.9888429500527000e+06  7.6551734252895033e+06  7.3104352211236143e+06  7.0014385197375892e+06  6.7735395947707202e+06  6.5610471132658236e+06  6.5955247578135896e+06  6.7644972753988141e+06  7.1948153042352088e+06  7.4829907114206282e+06  7.6012048558331104e+06  7.7066093640796579e+06  7.8231300827913964e+06  7.9020556202668799e+06  7.9546752649586303e+06  7.9659569828344416e+06  7.9660650116562564e+06  7.9486392340459088e+06  7.9008414071719628e+06  7.8841128775100848e+06  7.9211226774789672e+06  7.9437646394020766e+06  7.9508424741238272e+06  7.9508373894823445e+06  7.9276441946756393e+06  7.7731314226174159e+06  7.7202683437231146e+06  7.6278623470387021e+06  7.5722742420562003e+06  7.4933893211958949e+06  7.4078879397022603e+06  7.3147313234770643e+06  7.2541889990301440e+06  7.2427321836544126e+06  7.2569982100884309e+06  7.2704806006917721e+06  7.2696600212941505e+06  7.2754943537138226e+06  7.2782183986898726e+06  7.2778850543798953e+06  7.2570445518149082e+06  7.1882915823683655e+06  7.0008416100894995e+06  6.6137264780715061e+06  6.3285357639992833e+06  6.1661167828329317e+06  6.0980552893726025e+06  6.0736714369847290e+06  5.9886660002094060e+06  5.9303629029750153e+06  5.8832604963299362e+06  5.8626323492823318e+06  5.7919078248917470e+06  5.7367380697883889e+06  5.8074106224897001e+06  5.7310260654686270e+06  5.6129115336875813e+06  5.3747670228206236e+06  5.1094388336855406e+06  4.9472866645382931e+06  4.8616419048457677e+06  4.8931291508042188e+06  5.0040966926774718e+06  5.1132249992914852e+06  5.1831028216862772e+06  5.3494967768130703e+06  5.4485803286818732e+06  5.4599810053812610e+06  5.4647439926818302e+06  5.5199895401983485e+06  5.5741522401030855e+06  5.6956476725730710e+06  5.8225371901976662e+06  5.9059445951457126e+06  5.9217785878620623e+06  5.9465741776623325e+06  6.0582496488902392e+06  6.0780290465161055e+06  6.0746082600778919e+06  6.0852349672111217e+06  6.0808326003920455e+06  6.0673189592100652e+06  6.0344773472161451e+06  5.9753031588814287e+06  5.8887716002459098e+06  5.8143430693721082e+06  5.7630493117836546e+06  5.7226097904199306e+06  5.7251313602031404e+06  5.7535139959998019e+06  5.8119603194091395e+06  5.8861804318862678e+06  6.0240887111027706e+06  6.2376706944593061e+06  6.3835106386501146e+06  6.8211651711613527e+06  7.3916330150595047e+06  9.1256158594392929e+06  9.2857450550636053e+06  9.3069117283150740e+06  8.9188264732266329e+06  9.2252827346875370e+06  5.7891146139923688e+06  8.8752710215049945e+06  8.9202618954708036e+06  7.9283745007039336e+06  7.8980117708468670e+06  7.2725444571186425e+06  7.2776526173173264e+06  9.1418273187398631e+06  6.8211686004750580e+06  6.8187331582774231e+06  9.1028063253684677e+06  9.1459612093551476e+06  5.7891179048251370e+06  8.8621942156984266e+06  8.9202653527958095e+06  9.0314903971695360e+06  9.0904656231662165e+06  8.9176738682473935e+06  9.0967214079994019e+06  8.9176422659664787e+06  5.0853044073956897e+06  7.1796244453157475e+06  8.3784035193817765e+06  5.1432552317024982e+06  4.6800859813295780e+06  5.6803800309372768e+06  8.2407093388835555e+06  6.4197178496980704e+06  7.2114141641137945e+06  5.4907236140741808e+06  4.4158690630701156e+06  8.3576903441563118e+06  6.2767786975402692e+06  8.9297399550011549e+06  7.3760098291098503e+06  5.3358238971068319e+06  5.7535397532944307e+06  7.7995230683935434e+06  5.6376030278260279e+06  8.6866749000555146e+06  6.4630268721339805e+06  7.8460463581359927e+06  5.5498233913408592e+06  5.1727836546133794e+06  5.2219824913976025e+06  4.7141843922252143e+06  5.9542931934712371e+06  4.9570731268297201e+06  8.7553621493537743e+06  5.1455878522447944e+06  8.4490376934059989e+06  7.0930263338477146e+06  7.8604497699166052e+06  5.2100524402646907e+06  7.8944794514190834e+06  6.3874089548819251e+06  7.4022714290922340e+06  7.3358778172890153e+06  6.6171640985785043e+06  4.4918157717068177e+06  6.2841712246241523e+06  8.7298741819091253e+06  8.3022547945129713e+06  9.1640165747570712e+06  7.8447621087370953e+06  7.9016332055568248e+06  5.7565658910495881e+06  5.6428228277968839e+06  6.1149298259396385e+06  6.5800814092946462e+06  8.6282596070434824e+06  7.1867660041184481e+06  5.5351184128836729e+06  5.0179007327965396e+06  8.8946187264279351e+06  5.2110427134102043e+06  5.7228053976023030e+06  7.6554603183839209e+06  8.5208155060251318e+06  7.5739663899416057e+06  4.9055952556282505e+06  8.9393723512435220e+06  4.4736136206193250e+06  6.6315950132072456e+06  6.6255017687259195e+06  6.9710356558106933e+06  5.9841538817363847e+06  4.9996730562593155e+06  6.4691884076341707e+06  5.6200831605375838e+06  4.8114020270975530e+06  5.2685710733546549e+06  5.8397004005827010e+06  5.8179155336150248e+06  9.1012550417057518e+06  8.6819682619520873e+06  5.3766634575799704e+06  8.9862594583758060e+06  8.2902697664470105e+06  8.2521224795233300e+06  8.7211031157812793e+06  7.1308390744672799e+06  6.2126248463720419e+06  7.4423491793950675e+06  8.1285108205656372e+06  5.8527801775031304e+06  8.6356921571851987e+06  4.9663150730966404e+06  7.0341917501289863e+06  5.9675457918641269e+06  5.0425724517486924e+06  7.4535562889744584e+06  8.5251292626840472e+06  6.9135453367662802e+06  7.8279277788845235e+06  6.6981954716523550e+06  8.1534259414026476e+06  5.1381648145101508e+06  5.4014095146580599e+06  5.4557406059724810e+06  8.6824584069019370e+06  7.4691233340035509e+06  5.5751104631254505e+06  8.7972694480517358e+06  6.7176562143957000e+06  8.8842897463088688e+06  5.8304743450879958e+06  9.1065469168448653e+06  9.0963159022639915e+06  5.9443272207083832e+06  6.7840582131349742e+06  9.1005446142189596e+06  9.1774998198381178e+06  8.8252056607157737e+06  8.8747227084177341e+06  7.8636280650389278e+06  5.2872398785503358e+06  8.7772110625403933e+06  8.5430746663397308e+06  6.0473414730631104e+06  6.7801624636787800e+06  6.6396905433018925e+06  9.1585503787687775e+06  9.0938710481280927e+06  7.0451586062643249e+06  8.9917969787839949e+06  9.0098261309098881e+06  9.0540786043322850e+06  9.1838233772573899e+06  6.3968103505233256e+06  5.5897820830971682e+06  7.8742476068828255e+06  5.5780266408518134e+06  6.7189524613179434e+06  5.6402087518475559e+06  7.7622850670226561e+06  9.2746110585467685e+06  7.5311878431730838e+06  7.8988703435700051e+06  8.8383419490624443e+06  6.6368203019093238e+06  5.8770718029294182e+06  7.8827834329749551e+06  4.6917642353176177e+06  5.8652796882471479e+06  8.8705868591680285e+06  8.8024930104768295e+06  7.1846294019435393e+06  9.2747265280336048e+06  4.9299849467721255e+06  8.9309825760496631e+06  7.5671895856449315e+06  6.0438731698307684e+06  5.2819129594972143e+06  4.8912363189658718e+06  8.1596702053032937e+06  8.8474556789019648e+06  8.7767275850641001e+06  7.9030060333552081e+06  9.1370482186426297e+06  7.2640639222186925e+06  5.7649726532272808e+06  5.7659232071886677e+06  5.7541231806041291e+06  9.0998517749330234e+06  9.1145111315881908e+06  9.1204514391183853e+06  8.5183136497472487e+06  8.7624329012680259e+06  9.1308161455650702e+06  9.0336166352587156e+06  7.5735407524224129e+06  9.3046846284814123e+06  9.3020794630756546e+06  6.8978434342401912e+06  5.7141183418009039e+06  7.2331601459217742e+06  8.8896761823224109e+06  6.9451637879378246e+06  7.3499420013797833e+06  9.2833200085539781e+06  6.9859743847974995e+06  8.2506253951738225e+06  6.0042799157012021e+06  6.0750233938778639e+06  6.0284876915297592e+06  6.1224268269675281e+06  8.9000536097761169e+06  6.7786895153466789e+06  6.8097125046673212e+06  6.7439364886673205e+06  6.8025443296152297e+06  6.6853978601093655e+06  6.0401330866199126e+06  5.9366775179935358e+06  6.7764499472598890e+06  5.9818441543619568e+06  7.9625341331257671e+06  7.9614463969181124e+06  9.2957161149092112e+06  7.4377373928845581e+06  7.0624437472443851e+06  6.4464362638692735e+06  6.4113500167794768e+06  6.4866773315598024e+06  6.6711205048697935e+06  6.5064802450792091e+06  6.6268659527303316e+06  6.9886060911654634e+06  6.6874389852876887e+06  6.8616954152373243e+06  7.2379475495911445e+06  7.0401430901655117e+06  6.3072826123340242e+06  6.6547564276700160e+06  5.2305209309422951e+06  5.3370406702782093e+06  5.1656517575871041e+06  5.0245629914939767e+06  5.0409899799844073e+06  4.8887298971898723e+06  4.9515520085298661e+06  4.8810427906560227e+06  4.8645722495248234e+06  4.9754586617726749e+06  5.8198238702544840e+06  5.7871199084951393e+06  5.7834118109295955e+06  5.7388532793882759e+06  5.7553335657429397e+06  5.7210277298799073e+06  5.6992035343872951e+06  5.7242204137605084e+06  5.7378880835888125e+06  5.7007139565613046e+06  5.7082358849399332e+06  5.7128212404168928e+06  5.7479323504892569e+06  5.8357445610816367e+06  5.7733601749150222e+06  4.9535859698604718e+06  5.0908313529079184e+06  5.0789176483537666e+06  5.0191312881634310e+06  7.5255835390020683e+06  7.3024081172546465e+06  7.0718898067582482e+06  7.3092192928856174e+06  8.1316410349889724e+06  8.5420174745897502e+06  8.3117836577833919e+06  8.5112236412620172e+06  5.4288552765509868e+06  5.0135218119806452e+06  5.0289437078440506e+06  5.2031229032228366e+06  4.9271971192926783e+06  4.7262178229540819e+06  4.8392786711875405e+06  4.8058182944174437e+06  4.5584454522098945e+06  4.8633259672902878e+06  6.1983917612350658e+06  6.1210121882210178e+06  5.2416119142406546e+06  5.5568177708861651e+06  5.7002280595982186e+06  8.3496660909173042e+06  8.0593725225744499e+06  6.3764091798286336e+06  6.3409380398469670e+06  6.6689335969860777e+06  6.1446985901213018e+06  6.6610017092733663e+06  6.5578558742689900e+06  6.8659576725272704e+06  7.2742564947220050e+06  7.0963307803594852e+06  5.2071689750960385e+06  5.5381521232501268e+06  5.8073636108681122e+06  5.2394389859942179e+06  4.4101063412230890e+06  4.7006487876009494e+06  4.8016773323008614e+06  4.2836014204756105e+06  4.4045463294566907e+06  4.7220168559660697e+06  4.5555155503239948e+06  8.1046991297650402e+06  8.5524300352626685e+06  8.2994310840222584e+06  8.5858515658607222e+06  8.8380525900964830e+06  7.6485464188569654e+06  7.1450479584717778e+06  7.6058600325904600e+06  7.4180206629741928e+06  5.0149216602281909e+06  5.4150430685894284e+06  5.5971371938318377e+06  5.0628405493309228e+06  8.0511378768039960e+06  7.7747899199066665e+06  7.8493909118821761e+06  7.5909718718304811e+06  5.3925894276632965e+06  5.5572181799599258e+06  6.3975369600736275e+06  6.4611750166530302e+06  6.0603201872589998e+06  7.8565172563125519e+06  7.6129975473002950e+06  8.0535367631763620e+06  7.6527410315564889e+06  5.7354630549335126e+06  5.4097349251023997e+06  5.2724181992550734e+06  5.4411982649530433e+06  5.5798872166786166e+06  5.7640837578503080e+06  5.3273668087530322e+06  5.3265933754451433e+06  5.0201325372250462e+06  5.1080766176789915e+06  5.3686872050699536e+06  5.4285052175747063e+06  5.2037711352629270e+06  4.9685283154976610e+06  5.4884350854005730e+06  4.8367812118963450e+06  4.4069529949605055e+06  4.6927165151272723e+06  4.9760907120079072e+06  4.8961326028885730e+06  4.5753167005956788e+06  4.8062352844468085e+06  5.7945783901787233e+06  6.3253498360444373e+06  5.9396303725932250e+06  5.6571118518370381e+06  4.9914322041652994e+06  5.1316302447064025e+06  4.6490670860492541e+06  4.9610135655932752e+06  4.7957079542645738e+06  5.4707100208490239e+06  4.7085912946934374e+06  5.1117754190796698e+06  5.2220373321902258e+06  5.3897283840310518e+06  5.0124756459017619e+06  6.9979516447843639e+06  6.8857867337586554e+06  7.2798989280003225e+06  7.2666141811434003e+06  7.8418729203239847e+06  5.0762636095322482e+06  5.0068512657717699e+06  7.6779939929362638e+06  6.6916773132312773e+06  6.0166577910016049e+06  6.0427790108707324e+06  6.5478720497939149e+06  7.6029878839887176e+06  7.4074184601799864e+06  7.2190558526256103e+06  7.1743685022102417e+06  6.5690220739613669e+06  6.2183423962390181e+06  4.4407769489712361e+06  4.5742010174319018e+06  4.6825138508588234e+06  6.1091628559808815e+06  6.4835203592872256e+06  8.5070790318813883e+06  8.6811197483572960e+06  8.0720613995001083e+06  8.5049075414442290e+06  8.1963054290071456e+06  8.0641603518472733e+06  7.5842648177117761e+06  7.6632091501821401e+06  5.4894280955165373e+06  5.5632847831755402e+06  6.0562087471009158e+06  6.8499836493014544e+06  5.3420539753524549e+06  5.5742167261480996e+06  5.6388038918774901e+06  5.1983484779003682e+06  5.4692904269007389e+06  5.1925128821120569e+06  5.2662937766732164e+06  4.8339787633357635e+06  6.3179526415511975e+06  6.4907758418189520e+06  6.6260143589645671e+06  6.7536500181441456e+06  6.8020667764855465e+06  6.9312047351790778e+06  6.8320867801386556e+06  5.6989193058669111e+06  5.2079959740860518e+06  4.8876406912725819e+06  5.1494962724150391e+06  5.1466523397223456e+06  5.0895891884335503e+06  5.8318559455019850e+06  5.5564777229872504e+06  5.2030627811618811e+06  8.4538327417901680e+06  5.3655079803126445e+06  5.1740133170487275e+06  6.7878117758327974e+06  7.1904396624351460e+06  7.6530056384129412e+06  7.4523928476663837e+06  5.6025915965407873e+06  5.7635101777528003e+06  5.0923882413606327e+06  6.5091321482460406e+06  5.6627402747186581e+06  6.8060390100468481e+06  4.7421035218281271e+06  4.7609391478416389e+06  6.9288166035039192e+06  4.9328535358269475e+06  7.4199196323858388e+06  4.7942923885679580e+06  4.6572984636449311e+06  4.7146135768078370e+06  4.6119340061839707e+06  4.8289156062014671e+06  6.6029930528529529e+06  4.3595694240730917e+06  4.5868388599192267e+06  4.4593623607786493e+06  8.4299434615008123e+06  5.8937739157253662e+06  5.1597900322352080e+06  5.1799520259175738e+06  5.3175707793603502e+06  5.3871238037758339e+06  7.6875505785811609e+06  7.7494657471043849e+06  5.1311662511249371e+06  5.2258729590645991e+06  5.0327743540868284e+06  4.9800420359599059e+06  4.5317274876525328e+06  5.7021562720447965e+06  6.3720903660629187e+06  6.5439025831822958e+06  6.2007930252901865e+06  6.6173368843060173e+06  4.3965667249259399e+06  4.6299371261198381e+06  4.5259648541023871e+06  4.5834149663562085e+06  7.7071898062317306e+06  4.9105946107442258e+06  5.0071109226276726e+06  5.1163969188789250e+06  5.0515389536918625e+06  4.9262823162016328e+06  5.0226897912654551e+06  5.0382518308025114e+06  4.4353553494985579e+06  4.5474866840815051e+06  4.4499248142589945e+06  5.5429768390478687e+06  8.1772544339222163e+06  8.2743188360390272e+06  8.3829075678035310e+06  7.0557021674891654e+06  7.4956298916600058e+06  5.1396863051104723e+06  5.0217795849586418e+06  4.9487785210734596e+06  5.1035971146087293e+06  7.0510737358235717e+06  6.6290846068176338e+06  6.7406782819392942e+06  4.9714747379252082e+06  4.9953047396357069e+06  5.1042989410173912e+06  5.4076419408436436e+06  5.5190341047119433e+06  5.4054752512539541e+06  5.2702553243126078e+06  7.3303261264248751e+06  5.6810969409963284e+06  5.6024579360054033e+06  5.6467619367326507e+06  6.7446265019483790e+06  6.7137301546383072e+06  6.7193651565684639e+06  4.7499387606695164e+06  4.8663798206065809e+06  5.0053402888837513e+06  4.8384514806396076e+06  5.7200241525602043e+06  5.6487673915965110e+06  6.9192167090394115e+06  7.1010450430635903e+06  7.0003191254600603e+06  6.8930862433921061e+06  6.8957438531365804e+06  6.9522924918070938e+06  6.8308414790159967e+06  5.1296061845788546e+06  5.6971932014780976e+06  4.8889205832624836e+06  7.5876968601758247e+06  5.1057240848468458e+06  5.0875132874472057e+06  4.8671996597955758e+06  4.6042341779256221e+06  4.9266104478389630e+06  4.8844555620306386e+06  4.5632447035845416e+06  4.6012403953564446e+06  5.4453484762767740e+06  5.2277840169760566e+06  5.4774910336664617e+06  6.5267169171280656e+06  6.6700805672987876e+06  5.2420334289471442e+06  5.4001757752328916e+06  4.2753746305941679e+06  4.3646160623882227e+06  4.6708118736812091e+06  4.2931215921176653e+06  4.5268723912036149e+06  4.3803463088460965e+06  4.7837349922017111e+06  8.4051098678845242e+06  5.0798626275734175e+06  5.2812793790261270e+06  5.2082440784589620e+06  7.6630796104764678e+06  7.6716881166942101e+06  7.5699880879465826e+06  5.3462317191286348e+06  5.5577877702753339e+06  5.2955861848480729e+06  4.9451144355535731e+06  5.5471462858129274e+06  5.6622538090579584e+06  4.5925906932656113e+06  4.7314163275978696e+06  7.1384868291458562e+06  7.0932418941514809e+06  7.2340601322778277e+06  4.6201821002442073e+06  5.6224089261261215e+06  </DataArray> 
</PointData> 
</Piece>
</UnstructuredGrid>
</VTKFile>