<?xml version="1.0"?>
<VTKFile type="UnstructuredGrid"  version="0.1"  >
<UnstructuredGrid>
<Piece  NumberOfPoints="784" NumberOfCells="1320">
<Points>
<DataArray  type="Float64"  NumberOfComponents="3"  format="ascii">266913.131276 586512.314988 0  266738.13716 587762.325998 0  266363.132677 589012.328643 0  266175.641078 590169.601714 0  265666.575631 591040.7699119999 0  264875.64001 591687.766419 0  264900.636161 591845.049083 0  266088.14152 592012.3229499999 0  265561.959259 592661.17101 0  264288.136855 593037.368683 0  263865.194033 593999.8486949999 0  263850.641856 593236.729596 0  263625.634872 592756.525286 0  262689.574249 593299.848918 0  262475.636737 594003.0907310001 0  261934.554452 594340.929792 0  261725.631329 594932.094409 0  261729.256443 595728.498809 0  262138.136044 595012.330523 0  262288.141035 596262.333669 0  261488.994028 597511.480605 0  261234.15567 598316.338928 0  260815.635063 599014.863821 0  261400.643658 599389.7367680001 0  261322.963374 600022.185065 0  261119.455248 600931.061306 0  261607.436504 601293.0629359999 0  260807.446929 602089.899812 0  260025.642878 602988.868697 0  259613.135827 603937.3854499999 0  259050.643123 604100.987861 0  258411.880065 603988.6335979999 0  257764.357469 604449.872569 0  257971.239668 605320.429125 0  258041.396867 605740.635381 0  257188.143339 606987.394312 0  256038.141198 608112.3554550001 0  254788.141633 609087.4026939999 0  253588.140656 609812.362881 0  252338.135706 609737.4048949999 0  251088.138116 609787.404055 0  249963.12851 610287.399466 0  248613.130524 610462.365857 0  247363.132198 610687.407659 0  246113.130532 610837.411551 0  245832.347438 610918.209918 0  245016.946433 610958.5639439999 0  244313.129646 610762.372259 0  244400.622144 611378.093316 0  243939.669208 612460.8930899999 0  242960.649733 611984.892792 0  242170.381438 611919.647351 0  241888.122919 611112.375656 0  241393.380757 610467.6456149999 0  240594.157528 611306.369822 0  240525.621947 610804.648112 0  240363.123632 610512.3745050001 0  239113.123247 610262.374278 0  239813.12126 609037.412459 0  240588.122952 607812.368199 0  241013.119545 606625.9534560001 0  241454.373249 605724.888025 0  242238.120107 604687.3993 0  243088.121248 603462.362766 0  242860.319451 603007.3932640001 0  241563.116617 603812.361344 0  241778.400913 604327.642217 0  242059.837234 604824.879102 0  241475.620201 604923.2402390001 0  241462.182234 605449.881372 0  240906.219606 605674.888222 0  240241.856192 606891.125066 0  239891.734044 607841.012479 0  239048.653431 608724.889805 0  238118.054545 608974.895967 0  238888.111029 607337.406468 0  239738.119992 606212.362729 0  240288.12044 605687.4075229999 0  240380.212307 604729.521696 0  239347.309632 604603.204501 0  238888.112036 604387.408787 0  237913.11173 604687.401386 0  236784.172023 604499.882783 0  236883.408793 603717.08334 0  236154.933927 603595.565605 0  235688.103943 602912.369264 0  235763.108033 601662.366516 0  236363.110805 600412.35884 0  236738.107995 599162.356577 0  236525.607944 598482.2412899999 0  236138.109208 599362.357613 0  235725.063048 600325.4466510001 0  235091.948926 601408.5220979999 0  235188.10921 600312.366344 0  234375.602405 600833.9674270001 0  234663.109308 599912.358011 0  234138.105122 600062.365644 0  233955.307245 599029.561063 0  233338.103791 598387.401556 0  233988.09795 597862.356384 0  235138.101489 596637.3947750001 0  235563.1039 595387.392428 0  236513.103639 594212.356312 0  237163.10684 592987.3929869999 0  238313.103031 591862.3515540001 0  239513.107028 590812.3512640001 0  240638.102135 589787.387271 0  241463.109549 588587.378486 0  242294.489816 587443.735215 0  242913.101099 586512.341804 0  243544.066915 585474.859604 0  243040.448415 585184.975583 0  242438.10214 585337.38015 0  241313.102353 586562.339499 0  240538.107104 587787.382449 0  240114.641085 588588.939407 0  239388.100256 589437.382238 0  238188.104456 590512.346358 0  236938.100507 591362.349798 0  235813.10453 592537.396388 0  234864.502938 593178.7753880001 0  234463.097651 592862.357267 0  235113.0965 591662.3545979999 0  235713.101522 590412.346099 0  235777.688431 589976.7582779999 0  234943.583145 590706.265132 0  234462.482256 591490.2841159999 0  233801.497784 592112.940187 0  233388.099101 591787.394208 0  234013.093099 590437.393065 0  234776.217248 587148.7548100001 0  235163.093726 586562.3486189999 0  235313.098918 585483.229012 0  235250.59732 584662.298153 0  235588.093896 583337.379493 0  236329.432041 582199.858992 0  237188.096234 581462.3349939999 0  237463.088521 580212.335511 0  238350.592558 579057.652616 0  238591.415797 578574.847681 0  238313.094106 577612.328905 0  239229.696732 577695.769664 0  240195.161018 577513.008613 0  240614.996733 577149.8518770001 0  240663.091715 577412.332622 0  240288.092486 578662.334085 0  239942.357258 579508.095811 0  240438.100019 580212.3334220001 0  241338.095553 580387.375355 0  241238.099828 579137.369157 0  241788.097003 577887.370889 0  241983.554649 577241.9220939999 0  242054.178239 576927.8105029999 0  242588.100699 575737.366175 0  243149.324833 574898.583978 0  243695.278626 573919.517981 0  244268.494418 573724.8454239999 0  244995.134063 573930.2767810001 0  245417.314363 573391.601898 0  243450.599125 571859.479773 0  245776.797908 572599.8353060001 0  246779.639852 572973.285167 0  248034.741935 573186.082054 0  249413.10651 573162.3205520001 0  250496.922226 573271.1521899999 0  251613.105126 573237.3551319999 0  252421.824577 572846.032906 0  253256.245022 572580.4733130001 0  253739.471933 571960.9547369999 0  254174.511864 572149.8346569999 0  254484.944333 571684.194807 0  254384.108649 570891.346712 0  254344.002752 570218.26407 0  255025.609604 570829.0294979999 0  255715.005913 570489.264586 0  256218.846343 570774.828355 0  256834.349083 570508.5908 0  257390.092515 570014.308325 0  257624.431042 568493.478911 0  259355.811717 569380.021819 0  260033.372814 569617.066669 0  262679.741751 570320.699974 0  263289.115756 569524.817815 0  263463.114338 570512.301061 0  264638.198419 570687.3443539999 0  265058.220065 571334.378467 0  265447.561421 572077.90485 0  265488.125257 573137.3446020001 0  265131.937715 573963.293593 0  265432.389648 575093.068786 0  265638.122314 576338.029955 0  265750.630817 577371.8281319999 0  265738.570663 578561.9098850001 0  265875.630866 579139.630549 0  266213.129247 579862.311842 0  266563.130472 581112.314509 0  266238.135356 582362.310259 0  265938.12863 583612.320897 0  265738.131342 584762.3210189999 0  266875.638633 585365.358768 0  264018.7239399826 593650.4646671159 0  262236.3944351029 595831.1252656333 0  241846.246678 605206.1436625 0  240200.622106 608424.8903290001 0  240943.4862974102 610939.7757535663 0  236550.6094 599787.3577085 0  238528.1212051503 608102.9081793013 0  244413.4891967989 572609.5960859474 0  236382.0474488751 598808.3067022427 0  235369.601910944 600933.5380148316 0  235413.099011 591037.3503485 0  235446.2251831186 590266.6553871984 0  240475.5921005 578037.3333535 0  240413.173949154 577324.4280286073 0  240574.037899 606283.0066440001 0  263857.9179445 593618.2891454998 0  264153.4303974913 593343.916675058 0  242042.1833925 604946.7714812499 0  241650.3099635 605465.51584375 0  244613.6985165 572229.6575395 0  236631.8579695 598822.2989335 0  235140.029068 600860.444221 0  241767.7287175 604874.0596705 0  242140.15174975 604817.0853906251 0  234781.8558075 600573.1668855001 0  242091.167571125 604881.9284359375 0  234519.3558565 600373.162719 0  254604.8337712102 583989.0014118921 0  250699.5846056537 594617.3297041012 0  250540.4796469513 602258.2940568649 0  248483.7490186612 580334.7345534252 0  258549.2190328319 577893.951823392 0  257067.0067473103 590016.5327808241 0  243285.0921999099 596333.923437875 0  248333.1386145258 589098.0389905117 0  256142.8445072741 595883.3911551933 0  260245.1368072523 583315.2785712298 0  253472.3380211276 578932.2908163272 0  246432.3347504817 599884.5019511909 0  261555.9240922556 588041.186709004 0  247293.1100123104 605823.8307887657 0  246458.2798550911 593168.8646574575 0  252840.0183145193 588226.5564648228 0  249828.2874404451 584740.7888937403 0  255409.5660975206 600458.8956828594 0  260819.9733392385 574219.403683011 0  252584.2262054711 605722.6603825617 0  254049.8830611471 592547.4852571967 0  250015.4356193061 598425.2225922942 0  245872.072249477 577604.9761853142 0  262002.1583249522 579753.4663046852 0  257732.6630933878 586227.970805314 0  250242.5556457866 577017.3316409125 0  244921.6453001869 581816.6358421432 0  256520.3890639471 580904.824006648 0  240779.0970645865 599524.6679555867 0  257100.1829219198 574459.5922545703 0  239912.2630002034 595231.1172704464 0  244703.0875078634 590068.6945953515 0  242549.5490268674 592874.3693043783 0  251586.0465921376 581796.2215047925 0  246643.189997516 596527.447801719 0  251049.7658069622 591057.6752245198 0  253014.5731561695 596998.6601086652 0  238680.2197353724 584542.2309791476 0  259715.365803504 591937.1938619445 0  254097.157218761 575731.4494927844 0  246806.6408589328 586139.0877599345 0  246136.1179750556 602959.471719323 0  253520.7033332401 602835.180253843 0  244125.4295793909 607538.9817227355 0  252546.8895354472 599881.3279113505 0  258289.0983523553 600397.640191779 0  247518.7952199645 583037.3718217331 0  263140.3959879661 582529.2228421422 0  262894.8586894067 585442.3590432997 0  256968.6320599076 593040.7691844478 0  243573.0187527719 600218.2795730785 0  258888.5766127351 595139.7745218446 0  262588.7569809347 576734.8569237856 0  259318.4257992262 580601.2540325444 0  249963.3812725965 607065.7205847671 0  257494.5307999607 583482.5893534871 0  258906.4757205145 572278.8089438241 0  237751.446593475 587300.5805003279 0  255142.4708720699 604956.7580261135 0  258485.4978753244 597756.9250383095 0  255516.7820591553 587791.39641967 0  239758.4692108706 601926.8203218657 0  255873.0092222999 577739.5085867504
[...]
<PointData  Scalars="f_24704-0"> 
<DataArray  type="Float64"  Name="f_24704-0"  format="ascii">3.4108115419258880e+06  3.5279229422107846e+06  3.6663527804948175e+06  3.7766315037220228e+06  3.8532456876332401e+06  3.9628155569579331e+06  3.9933695693745567e+06  4.0092544265388083e+06  4.0114920675910283e+06  4.0470498650824581e+06  4.0556205968616540e+06  4.0569272760855262e+06  4.0922585188945695e+06  4.2918916230742224e+06  4.4071762479015458e+06  4.5060350802996187e+06  4.6333317815123284e+06  4.7656053577547530e+06  4.7799995819081273e+06  4.8004676332727689e+06  4.9038542433767579e+06  4.9832661670160759e+06  5.0708533436094048e+06  5.1161355352160186e+06  5.1378054440910323e+06  5.1840989840293378e+06  5.1972513160543144e+06  5.2217274412160879e+06  5.2703711463529943e+06  5.3033469235233814e+06  5.3138251436428195e+06  5.3429216917849705e+06  5.4102683817855865e+06  5.4607373947701072e+06  5.4695815563982269e+06  5.5081427056221524e+06  5.5502157655299483e+06  5.5870045295153679e+06  5.6109909230895396e+06  5.6323575164416330e+06  5.6629443762898184e+06  5.6914067163545210e+06  5.7175799314503716e+06  5.7414642208122415e+06  5.7629029826634377e+06  5.7673580468916669e+06  5.7785733172774436e+06  5.7920260295547731e+06  5.8015003708942458e+06  5.8056198644508598e+06  5.8066453557445453e+06  5.8076039436478363e+06  5.8076952048877925e+06  5.8096855748686725e+06  5.8132333638620349e+06  5.8129864472390525e+06  5.8130606908867499e+06  5.8143877982787127e+06  5.8108977511407295e+06  5.7982325147575205e+06  5.7815410470626615e+06  5.7660065640815720e+06  5.7381115526622105e+06  5.6855510493377596e+06  5.6652679345007734e+06  5.6890521472061435e+06  5.7012049647768075e+06  5.7046608702896619e+06  5.7083339438394709e+06  5.7143147236825349e+06  5.7231412200289816e+06  5.7556653226964073e+06  5.7662126948566632e+06  5.7711450388421314e+06  5.7721340099800965e+06  5.7668014523074450e+06  5.7508475552619183e+06  5.7321159573119478e+06  5.7055462630911861e+06  5.6966151684209500e+06  5.6958443172846334e+06  5.6961309419815810e+06  5.6960100429136986e+06  5.6939914319469528e+06  5.6923236361822784e+06  5.6905219314347841e+06  5.6839136309554093e+06  5.6666299704951411e+06  5.6373574809560291e+06  5.6230598168679150e+06  5.6328636614407822e+06  5.6385293001168324e+06  5.6404766716884058e+06  5.6388592889830070e+06  5.6395284437322104e+06  5.6377978931873776e+06  5.6373875164598273e+06  5.6348398694163486e+06  5.6335394998646416e+06  5.6305906306573106e+06  5.6051236980572315e+06  5.5741060958422273e+06  5.5280230415125554e+06  5.4764683558546156e+06  5.4053067196414238e+06  5.3059441627799710e+06  5.1747060095854653e+06  5.0238752921909448e+06  4.8618758099370552e+06  4.7084521577999322e+06  4.4816138518324569e+06  4.3594656141917044e+06  4.3215756854616115e+06  4.3305443473392762e+06  4.3505720837284643e+06  4.3605436689953990e+06  4.3703670351066533e+06  4.3826792869752776e+06  4.3925276527174981e+06  4.4000521357000321e+06  4.4017670237731803e+06  4.4017838294181190e+06  4.3991415115651460e+06  4.3920956166574340e+06  4.3894841517291730e+06  4.3943805412214063e+06  4.3977236324368464e+06  4.3987931644083299e+06  4.3987945946919024e+06  4.3953146028196169e+06  4.3728567480555410e+06  4.3651305981154591e+06  4.3505334984833570e+06  4.3410047934280830e+06  4.3267756591108795e+06  4.3102931012933943e+06  4.2899475713947462e+06  4.2709831082872180e+06  4.2603759671733137e+06  4.2591355312862452e+06  4.2591114227390550e+06  4.2588244620720325e+06  4.2587418900005706e+06  4.2588366138407979e+06  4.2588239909175057e+06  4.2576167659294205e+06  4.2515242341669872e+06  4.2232485601422414e+06  4.1305784561366579e+06  4.0111609583261344e+06  3.9181926397502171e+06  3.8690623307666644e+06  3.8493554754109527e+06  3.7754599584262636e+06  3.7228175238584988e+06  3.6802199531729254e+06  3.6671438983823070e+06  3.6256571907284018e+06  3.5717598796719220e+06  3.5545325446852990e+06  3.5551384138813247e+06  3.5236276003760463e+06  3.4292070795639371e+06  3.2811666402456383e+06  3.1270380849089581e+06  2.8947374630258321e+06  2.6860054736386193e+06  2.4719509928598586e+06  2.3332053229909115e+06  2.2539820686667543e+06  2.0932854617307093e+06  2.0129428370519916e+06  2.0063563021991539e+06  1.9902895990159304e+06  1.9259071365216218e+06  1.8612868801165146e+06  1.7324799199848180e+06  1.6166599203279139e+06  1.5561103562200908e+06  1.5163649854609221e+06  1.4745174593971933e+06  1.3349860377461968e+06  1.3225054909022963e+06  1.3204569122100689e+06  1.3090761668990711e+06  1.3096535063756595e+06  1.3145421678995148e+06  1.3311853367990938e+06  1.3718678797637445e+06  1.4647854794232675e+06  1.5971095031674514e+06  1.7372843466815897e+06  1.9520652423052040e+06  2.0844670022611576e+06  2.2299687766028545e+06  2.4100338385771164e+06  2.6072822642365997e+06  2.8700802881609653e+06  3.1681878793150308e+06  3.3295094878252754e+06  4.0557051311960253e+06  4.7864497934619961e+06  5.7538440963148847e+06  5.8059652880228823e+06  5.8128113027285822e+06  5.6533950796986539e+06  5.7707275716959415e+06  3.5558822764682835e+06  5.6271235395818772e+06  5.6400853234263742e+06  4.3961356930492260e+06  4.3911506868677698e+06  4.2585757149102380e+06  4.2588154528115038e+06  5.7421502928928193e+06  4.0556793392213946e+06  4.0554930855393517e+06  5.7464276415587049e+06  5.7604468827071358e+06  3.5558869446882727e+06  5.6283852065300345e+06  5.6400865142139997e+06  5.7052100421747463e+06  5.7424069344981313e+06  5.6392324837260749e+06  5.7444458963760361e+06  5.6392217803323790e+06  3.6425334952274137e+06  5.0646585983800441e+06  5.5061074101806218e+06  3.7748231372494432e+06  1.8563779966153405e+06  4.2999416238623969e+06  5.4378403958278233e+06  4.6930340651538046e+06  4.9416834617058253e+06  3.0184621352420319e+06  3.0692913036869429e+06  5.5114228204889456e+06  3.7529767440713579e+06  5.6842408185017640e+06  5.1369161194832493e+06  4.3514114914533747e+06  4.1377896667447854e+06  5.2825270046277111e+06  1.3901917943509170e+06  5.5699771992928414e+06  4.7428720563445063e+06  5.3378783036899352e+06  3.7397044289357695e+06  2.0917469613331119e+06  3.7126191286389641e+06  3.3311084579371489e+06  4.0999883681478295e+06  2.9062792040093243e+06  5.6080053519617049e+06  1.8720765820217840e+06  5.4839745566975763e+06  4.9707960731045809e+06  5.2800641642016647e+06  3.6592886307985964e+06  5.3431643853010302e+06  4.7484576131990701e+06  5.1443695403825222e+06  4.3202756118794978e+06  4.3639580060022399e+06  2.5774261066124309e+06  4.4588633677734453e+06  5.6296974612157708e+06  5.4516894119138326e+06  5.7641028603909612e+06  5.3390583807208613e+06  5.1992865769106373e+06  4.0980739924013480e+06  2.7100655263477867e+06  3.2881301104888958e+06  4.6437823933385136e+06  5.5845698793709297e+06  4.7648045609025974e+06  1.5440806196438579e+06  2.4798475480706096e+06  5.6556062172000455e+06  3.2742602000251827e+06  1.5631127629663509e+06  4.3617525718808332e+06  5.4901240907254452e+06  5.0140657282761913e+06  4.1143987684839121e+06  5.6705738152742106e+06  2.4099581673621051e+06  4.0526483054023962e+06  4.2323031731821299e+06  4.9862981238128664e+06  3.9519474599308115e+06  3.3446876776507343e+06  3.5904985481644501e+06  4.4666624494066564e+06  3.4831598594965986e+06  3.5043405443102336e+06  3.4705877256603185e+06  3.9564404942442970e+06  5.7374637962571755e+06  5.5915106896017790e+06  3.8894875933868666e+06  5.7083971701710559e+06  5.4744685429661535e+06  5.4793129023292009e+06  5.5825196551579218e+06  4.2721378834966561e+06  4.3012327902457360e+06  5.1406910884968601e+06  5.3313032906186171e+06  4.3997519872665945e+06  5.5946620494728703e+06  4.0122466744083888e+06  4.9702259232570659e+06  1.3401000220175833e+06  3.6062812624798515e+06  5.1812337025160370e+06  5.5237598336987309e+06  4.9355328616608074e+06  5.2925609833427388e+06  4.7205457608784931e+06  5.3724828978562122e+06  1.4574690400613660e+06  3.8851399687944744e+06  3.8863702421775018e+06  5.5605592361244056e+06  5.1478632955586603e+06  2.2570649912083070e+06  5.5993611147616003e+06  4.8674636589826187e+06  5.6450239187085461e+06  1.3893512322536069e+06  5.7471658518360201e+06  5.7442448604570255e+06  3.8298609247007566e+06  4.0266159008644391e+06  5.7456732432795139e+06  5.7645169248706624e+06  5.6181751267360263e+06  5.6255138744351743e+06  4.3859616378299799e+06  2.0195826088836736e+06  5.6413139499598015e+06  5.4848602832298698e+06  3.8488845648102877e+06  3.9965094893214554e+06  3.8397168184951646e+06  5.7643884252614947e+06  5.7435129235212179e+06  4.5856156824190589e+06  5.6890040225158567e+06  5.7158247621510457e+06  5.7305163748025680e+06  5.7658988639721395e+06  4.3090363142841654e+06  3.5603028088131165e+06  4.3886965928032547e+06  1.7792641915332417e+06  3.9361382114361878e+06  2.0252836993180783e+06  4.3724588994048517e+06  5.8018745682024211e+06  4.3384000617619697e+06  4.3910789822913250e+06  5.6200778635883164e+06  4.2903441595632918e+06  1.5184002387228676e+06  4.3888690984005043e+06  2.7523210712420051e+06  3.6839668538543973e+06  5.6250163579879319e+06  5.6019895693701236e+06  4.2606806345723430e+06  5.8009824597993260e+06  3.2736516991424179e+06  5.6597088493264215e+06  4.9488758246381413e+06  1.3208904559562339e+06  2.1109998848801740e+06  2.3467369452960189e+06  5.2992282936649695e+06  5.6613231841773838e+06  5.6327092906664545e+06  5.1565754786873059e+06  5.7575160698667904e+06  4.7252464887539949e+06  3.5579738784537995e+06  3.5573995979135977e+06  1.6470852071734236e+06  5.7454640879207896e+06  5.7502357999478290e+06  5.7521542367104646e+06  5.4724620459348997e+06  5.5923861460367553e+06  5.7456791126024202e+06  5.7076013199752104e+06  4.3567355867598047e+06  5.8120419473618045e+06  5.8113214324989403e+06  4.2252523665916873e+06  1.6502740143874981e+06  4.2574353758090716e+06  5.6782652961756298e+06  4.3970727471981496e+06  4.3063453463388365e+06  5.8033417065344146e+06  4.2893893609028924e+06  5.3614640758923711e+06  2.9703818240851196e+06  3.8554108067139150e+06  3.8111866078141336e+06  3.9008416918002144e+06  5.6337690228273831e+06  3.9855741367366966e+06  4.0211530871701031e+06  3.9430448323581587e+06  4.0182655560952658e+06  3.8341209774343185e+06  1.3310911084550719e+06  1.4015202137634249e+06  4.1328750011944920e+06  3.7884483593174820e+06  4.4012430857845126e+06  4.4010769753787834e+06  5.8089599319693316e+06  5.0965588765156148e+06  4.9155526756231422e+06  4.4914804179154029e+06  4.3892661008654824e+06  4.3754428422972485e+06  4.3333387660429012e+06  4.3539302930717980e+06  4.3210222596925767e+06  4.3203495027395086e+06  4.3148974721882259e+06  4.3022672792846551e+06  4.3258751523841070e+06  4.3153396051572375e+06  4.1041433590267603e+06  4.1835525689663338e+06  3.3572973871890367e+06  3.4493220592575385e+06  3.3473656553319655e+06  3.2125748855044022e+06  3.2657015060717338e+06  3.0224699479790106e+06  3.1933507387102558e+06  3.1075660156778726e+06  2.6255947620042670e+06  2.4176080464119194e+06  1.5467236773015647e+06  1.6641208271547828e+06  1.6252277751523287e+06  1.8327085539405872e+06  1.6989111477745043e+06  2.0189319232355359e+06  1.9922475962246347e+06  1.7924544527237010e+06  2.1643798962763306e+06  2.0500628059455031e+06  2.2308945307551948e+06  2.1252833299727780e+06  2.3462317993753566e+06  2.6679066990318047e+06  2.4574129989586170e+06  3.6609670153419743e+06  3.3044767531023799e+06  3.4576065455502030e+06  3.8312308137713587e+06  5.2104124205743037e+06  5.1046526840792913e+06  5.0265999636278627e+06  5.1237718124487232e+06  5.4284700093862498e+06  5.5522092728742082e+06  5.4935417823309954e+06  5.5522198451121105e+06  3.9368234137496143e+06  3.6387855206795121e+06  3.6846742345127072e+06  3.8347020249277083e+06  1.9153189505895826e+06  2.4094653682653424e+06  1.7807238822184959e+06  2.1602522700777608e+06  2.1082850430501099e+06  1.6009240468000735e+06  4.3328046770494888e+06  4.4799827856591083e+06  4.2105870353632830e+06  4.3854723800541256e+06  4.1318782948121498e+06  5.4608274995016046e+06  5.3637125936479168e+06  4.7213063863035645e+06  4.5797021129080914e+06  4.8478890710328510e+06  4.5504297515305663e+06  4.8176211743799346e+06  4.7075089543859595e+06  4.8445417359570870e+06  5.0454993547001341e+06  4.9545026385520147e+06  2.5597233840975622e+06  2.8479423907336933e+06  3.1510297355488399e+06  2.7614075540044126e+06  3.2074285591936153e+06  2.9622728558344408e+06  3.3860175242816354e+06  2.8046873595446516e+06  2.7638083594773100e+06  3.2001446318180170e+06  3.2987034644785230e+06  5.4304402561523821e+06  5.5748972958864830e+06  5.4956954339615656e+06  5.5828859648315897e+06  5.6605292506304737e+06  5.2468020414182246e+06  5.0411044827012708e+06  5.2178357769343229e+06  5.1418929023357769e+06  4.2381747753396910e+06  4.4107079670213331e+06  4.3752219211115390e+06  4.1883260839300649e+06  5.3727661091430280e+06  5.3101737053311002e+06  5.2388358778041881e+06  5.2149676034193076e+06  1.5569852239719585e+06  1.4004370513128566e+06  4.7458452186368173e+06  4.6941131733419495e+06  4.6107529953045007e+06  5.3397848566726781e+06  5.2453638195776707e+06  5.4126041663929028e+06  5.2627838401119709e+06  3.8482837364330618e+06  3.6251712841416635e+06  3.6795983661302179e+06  3.8069621941292351e+06  3.6396209628400221e+06  3.7053566316288980e+06  2.4082813825322972e+06  1.7734983991235956e+06  2.2499122504333947e+06  1.7176675331490445e+06  2.1692960036976147e+06  2.0421721697358226e+06  3.4983601254829005e+06  3.9165299200152084e+06  3.8377424520586361e+06  3.8589617383281919e+06  3.0037026560576502e+06  3.3990661639454253e+06  3.4230250582344807e+06  3.4779636064628698e+06  3.0662260383720659e+06  3.2941436529466705e+06  4.1029345299717537e+06  4.1770635502258535e+06  4.0221994013391165e+06  3.9958033078079638e+06  2.6818559344011298e+06  3.0916263896216513e+06  2.6371442454496324e+06  3.1348898629506491e+06  2.2099960091085457e+06  1.6923696379616160e+06  2.0790995433569436e+06  1.5932286931585344e+06  1.9545120443695434e+06  1.8297356407199535e+06  2.1089383452217542e+06  4.9521878107327996e+06  4.8522136669961866e+06  5.0636659937556144e+06  5.0336467746393494e+06  5.2854112506637983e+06  3.5119575614708597e+06  3.5654482022834658e+06  5.2659279003846385e+06  4.8714206090283785e+06  4.6132866021922193e+06  4.5806591613726746e+06  4.8096737481801510e+06  5.2472314118913198e+06  5.1418639608812872e+06  4.2977703516394170e+06  4.3059118167938106e+06  4.5100995987791372e+06  4.1712460010654042e+06  2.4841936235501892e+06  2.6651467295475621e+06  2.4598089740832709e+06  4.4335239086266821e+06  4.5886874769326244e+06  5.5611977170731463e+06  5.6131806605050433e+06  5.3999550731673520e+06  5.5258997440696144e+06  5.3935662461808650e+06  5.4122400016800165e+06  5.2439055235271025e+06  5.1696133783531105e+06  3.9841889220226509e+06  2.4742624418872613e+06  4.5566001237691017e+06  4.6127499995193584e+06  1.4779430379643028e+06  1.7701661524973409e+06  1.5994852949759667e+06  2.9095046060021631e+06  3.3621030958764087e+06  4.3009256192873064e+06  4.0301452366773561e+06  4.0610758856897750e+06  4.0147669592907457e+06  4.2589695817986345e+06  4.2608726455790587e+06  4.2218216513274014e+06  4.2652000914556570e+06  4.9616304940783726e+06  4.9271184122162201e+06  3.9225441032910324e+06  3.6330662941163480e+06  3.5476037016877960e+06  3.6876000303867580e+06  3.5476743180805487e+06  3.3984700492495643e+06  3.7208546079763817e+06  4.1561289379513846e+06  3.9465878302455405e+06  5.5413911521315351e+06  4.2195116798642697e+06  3.7504788796667587e+06  4.8348877826567758e+06  5.0452867377812928e+06  5.2237415409187255e+06  5.1216820784321362e+06  2.1382362147130757e+06  1.4905031178333401e+06  2.1764308666926809e+06  4.3014553582959399e+06  1.8246755169376556e+06  4.2845968375305077e+06  3.0425356137405331e+06  2.5510279556608638e+06  4.2584922263499564e+06  3.7461580287243114e+06  5.1678917838269230e+06  1.8577019286877548e+06  2.1262313537272322e+06  1.7768293217160567e+06  1.9709352479968665e+06  1.6570781532753967e+06  4.7637903466952704e+06  3.1395011277240817e+06  3.2346527074354850e+06  3.1903254509513779e+06  5.5371170916672330e+06  4.5608482285374310e+06  4.2960993010815745e+06  4.2717338440704271e+06  4.2851489591064975e+06  1.4580443979815370e+06  5.2765703282852089e+06  5.3011401385147935e+06  2.3172281317258943e+06  2.2501792238692646e+06  3.6829977870369074e+06  3.7831928949946342e+06  3.1809323675153027e+06  4.0473827819938688e+06  4.7349932916674009e+06  4.8109262153567867e+06  4.6665577455449430e+06  4.8405945312284809e+06  2.7996414240355683e+06  2.3932779893931230e+06  2.6215560336389919e+06  2.5176775547279874e+06  5.2927144513750942e+06  2.3241332625162196e+06  2.5770592277755798e+06  2.7031666879537506e+06  4.1633577805856406e+06  4.1774829986992404e+06  4.2102844166348446e+06  4.0715757744992548e+06  2.5925008269399339e+06  2.2271750790633452e+06  2.4426738220610991e+06  3.9917785724866553e+06  5.4554369854332367e+06  5.4875449022205146e+06  5.5219103060064856e+06  4.2781618291122420e+06  5.1930981084080748e+06  4.1193191496336134e+06  3.6438668325195862e+06  3.5775781207358283e+06  3.6796900974312541e+06  4.9911756440490056e+06  4.7143972605447806e+06  4.7802383741887417e+06  1.6273909893544635e+06  1.5172248160034057e+06  1.4902213718768116e+06  3.8447659570904016e+06  3.9411411580212214e+06  3.9325576153807156e+06  3.8189680645782310e+06  5.0975729405181138e+06  1.9060665097967449e+06  1.8953140893844131e+06  1.9228235153302029e+06  4.2966071235433426e+06  4.2739430764019638e+06  4.2856694700275548e+06  3.1742585342550660e+06  3.2816171847738195e+06  3.3387945675253286e+06  2.2813071634116303e+06  1.7199868553796243e+06  1.7074367159035378e+06  4.2945486339795263e+06  4.3097615624414608e+06  4.3032896135057304e+06  4.2781183072801800e+06  4.2861368606164809e+06  4.2745779705227464e+06  4.2940543548074244e+06  3.3688121559356991e+06  1.8091621495023365e+06  3.7609585521836202e+06  5.2368139266352216e+06  3.7610489145396762e+06  3.7188844261023044e+06  1.7290063383672524e+06  2.2425584159096158e+06  2.1965546704499964e+06  2.4303663002271601e+06  2.3735831485996605e+06  2.0693807430043321e+06  4.1703328943299898e+06  4.1218289910763595e+06  4.0819700478566671e+06  4.7984203701755982e+06  4.7718117704691729e+06  2.4750524005011944e+06  2.6283044814832946e+06  3.0217871447014436e+06  3.1040375821339521e+06  3.3405188207172356e+06  2.9065836364497296e+06  2.6920069152015611e+06  2.6155171955264434e+06  3.4360819229251561e+06  5.5296310316237444e+06  4.2700029502183190e+06  4.3571799583181525e+06  4.2037420472109830e+06  5.2634134420851264e+06  5.2778672268552715e+06  5.2290169530093279e+06  3.7441878397646658e+06  3.8657652920056912e+06  3.7801133156910995e+06  3.3479045198703092e+06  3.9908581653462602e+06  3.9580091187832355e+06  2.3373549576044469e+06  2.3362275026966538e+06  5.0088185051561166e+06  4.9997704944671132e+06  5.0542551020838497e+06  2.5632036976110302e+06  1.7979811090354770e+06  </DataArray> 
</PointData> 
</Piece>
</UnstructuredGrid>
</VTKFile>