<?xml version="1.0"?>
<VTKFile type="UnstructuredGrid"  version="0.1"  >
<UnstructuredGrid>
<Piece  NumberOfPoints="784" NumberOfCells="1320">
<Points>
<DataArray  type="Float64"  NumberOfComponents="3"  format="ascii">266913.131276 586512.314988 0  266738.13716 587762.325998 0  266363.132677 589012.328643 0  266175.641078 590169.601714 0  265666.575631 591040.7699119999 0  264875.64001 591687.766419 0  264900.636161 591845.049083 0  266088.14152 592012.3229499999 0  265561.959259 592661.17101 0  264288.136855 593037.368683 0  263865.194033 593999.8486949999 0  263850.641856 593236.729596 0  263625.634872 592756.525286 0  262689.574249 593299.848918 0  262475.636737 594003.0907310001 0  261934.554452 594340.929792 0  261725.631329 594932.094409 0  261729.256443 595728.498809 0  262138.136044 595012.330523 0  262288.141035 596262.333669 0  261488.994028 597511.480605 0  261234.15567 598316.338928 0  260815.635063 599014.863821 0  261400.643658 599389.7367680001 0  261322.963374 600022.185065 0  261119.455248 600931.061306 0  261607.436504 601293.0629359999 0  260807.446929 602089.899812 0  260025.642878 602988.868697 0  259613.135827 603937.3854499999 0  259050.643123 604100.987861 0  258411.880065 603988.6335979999 0  257764.357469 604449.872569 0  257971.239668 605320.429125 0  258041.396867 605740.635381 0  257188.143339 606987.394312 0  256038.141198 608112.3554550001 0  254788.141633 609087.4026939999 0  253588.140656 609812.362881 0  252338.135706 609737.4048949999 0  251088.138116 609787.404055 0  249963.12851 610287.399466 0  248613.130524 610462.365857 0  247363.132198 610687.407659 0  246113.130532 610837.411551 0  245832.347438 610918.209918 0  245016.946433 610958.5639439999 0  244313.129646 610762.372259 0  244400.622144 611378.093316 0  243939.669208 612460.8930899999 0  242960.649733 611984.892792 0  242170.381438 611919.647351 0  241888.122919 611112.375656 0  241393.380757 610467.6456149999 0  240594.157528 611306.369822 0  240525.621947 610804.648112 0  240363.123632 610512.3745050001 0  239113.123247 610262.374278 0  239813.12126 609037.412459 0  240588.122952 607812.368199 0  241013.119545 606625.9534560001 0  241454.373249 605724.888025 0  242238.120107 604687.3993 0  243088.121248 603462.362766 0  242860.319451 603007.3932640001 0  241563.116617 603812.361344 0  241778.400913 604327.642217 0  242059.837234 604824.879102 0  241475.620201 604923.2402390001 0  241462.182234 605449.881372 0  240906.219606 605674.888222 0  240241.856192 606891.125066 0  239891.734044 607841.012479 0  239048.653431 608724.889805 0  238118.054545 608974.895967 0  238888.111029 607337.406468 0  239738.119992 606212.362729 0  240288.12044 605687.4075229999 0  240380.212307 604729.521696 0  239347.309632 604603.204501 0  238888.112036 604387.408787 0  237913.11173 604687.401386 0  236784.172023 604499.882783 0  236883.408793 603717.08334 0  236154.933927 603595.565605 0  235688.103943 602912.369264 0  235763.108033 601662.366516 0  236363.110805 600412.35884 0  236738.107995 599162.356577 0  236525.607944 598482.2412899999 0  236138.109208 599362.357613 0  235725.063048 600325.4466510001 0  235091.948926 601408.5220979999 0  235188.10921 600312.366344 0  234375.602405 600833.9674270001 0  234663.109308 599912.358011 0  234138.105122 600062.365644 0  233955.307245 599029.561063 0  233338.103791 598387.401556 0  233988.09795 597862.356384 0  235138.101489 596637.3947750001 0  235563.1039 595387.392428 0  236513.103639 594212.356312 0  237163.10684 592987.3929869999 0  238313.103031 591862.3515540001 0  239513.107028 590812.3512640001 0  240638.102135 589787.387271 0  241463.109549 588587.378486 0  242294.489816 587443.735215 0  242913.101099 586512.341804 0  243544.066915 585474.859604 0  243040.448415 585184.975583 0  242438.10214 585337.38015 0  241313.102353 586562.339499 0  240538.107104 587787.382449 0  240114.641085 588588.939407 0  239388.100256 589437.382238 0  238188.104456 590512.346358 0  236938.100507 591362.349798 0  235813.10453 592537.396388 0  234864.502938 593178.7753880001 0  234463.097651 592862.357267 0  235113.0965 591662.3545979999 0  235713.101522 590412.346099 0  235777.688431 589976.7582779999 0  234943.583145 590706.265132 0  234462.482256 591490.2841159999 0  233801.497784 592112.940187 0  233388.099101 591787.394208 0  234013.093099 590437.393065 0  234776.217248 587148.7548100001 0  235163.093726 586562.3486189999 0  235313.098918 585483.229012 0  235250.59732 584662.298153 0  235588.093896 583337.379493 0  236329.432041 582199.858992 0  237188.096234 581462.3349939999 0  237463.088521 580212.335511 0  238350.592558 579057.652616 0  238591.415797 578574.847681 0  238313.094106 577612.328905 0  239229.696732 577695.769664 0  240195.161018 577513.008613 0  240614.996733 577149.8518770001 0  240663.091715 577412.332622 0  240288.092486 578662.334085 0  239942.357258 579508.095811 0  240438.100019 580212.3334220001 0  241338.095553 580387.375355 0  241238.099828 579137.369157 0  241788.097003 577887.370889 0  241983.554649 577241.9220939999 0  242054.178239 576927.8105029999 0  242588.100699 575737.366175 0  243149.324833 574898.583978 0  243695.278626 573919.517981 0  244268.494418 573724.8454239999 0  244995.134063 573930.2767810001 0  245417.314363 573391.601898 0  243450.599125 571859.479773 0  245776.797908 572599.8353060001 0  246779.639852 572973.285167 0  248034.741935 573186.082054 0  249413.10651 573162.3205520001 0  250496.922226 573271.1521899999 0  251613.105126 573237.3551319999 0  252421.824577 572846.032906 0  253256.245022 572580.4733130001 0  253739.471933 571960.9547369999 0  254174.511864 572149.8346569999 0  254484.944333 571684.194807 0  254384.108649 570891.346712 0  254344.002752 570218.26407 0  255025.609604 570829.0294979999 0  255715.005913 570489.264586 0  256218.846343 570774.828355 0  256834.349083 570508.5908 0  257390.092515 570014.308325 0  257624.431042 568493.478911 0  259355.811717 569380.021819 0  260033.372814 569617.066669 0  262679.741751 570320.699974 0  263289.115756 569524.817815 0  263463.114338 570512.301061 0  264638.198419 570687.3443539999 0  265058.220065 571334.378467 0  265447.561421 572077.90485 0  265488.125257 573137.3446020001 0  265131.937715 573963.293593 0  265432.389648 575093.068786 0  265638.122314 576338.029955 0  265750.630817 577371.8281319999 0  265738.570663 578561.9098850001 0  265875.630866 579139.630549 0  266213.129247 579862.311842 0  266563.130472 581112.314509 0  266238.135356 582362.310259 0  265938.12863 583612.320897 0  265738.131342 584762.3210189999 0  266875.638633 585365.358768 0  264018.7239399826 593650.4646671159 0  262236.3944351029 595831.1252656333 0  241846.246678 605206.1436625 0  240200.622106 608424.8903290001 0  240943.4862974102 610939.7757535663 0  236550.6094 599787.3577085 0  238528.1212051503 608102.9081793013 0  244413.4891967989 572609.5960859474 0  236382.0474488751 598808.3067022427 0  235369.601910944 600933.5380148316 0  235413.099011 591037.3503485 0  235446.2251831186 590266.6553871984 0  240475.5921005 578037.3333535 0  240413.173949154 577324.4280286073 0  240574.037899 606283.0066440001 0  263857.9179445 593618.2891454998 0  264153.4303974913 593343.916675058 0  242042.1833925 604946.7714812499 0  241650.3099635 605465.51584375 0  244613.6985165 572229.6575395 0  236631.8579695 598822.2989335 0  235140.029068 600860.444221 0  241767.7287175 604874.0596705 0  242140.15174975 604817.0853906251 0  234781.8558075 600573.1668855001 0  242091.167571125 604881.9284359375 0  234519.3558565 600373.162719 0  254604.8337712102 583989.0014118921 0  250699.5846056537 594617.3297041012 0  250540.4796469513 602258.2940568649 0  248483.7490186612 580334.7345534252 0  258549.2190328319 577893.951823392 0  257067.0067473103 590016.5327808241 0  243285.0921999099 596333.923437875 0  248333.1386145258 589098.0389905117 0  256142.8445072741 595883.3911551933 0  260245.1368072523 583315.2785712298 0  253472.3380211276 578932.2908163272 0  246432.3347504817 599884.5019511909 0  261555.9240922556 588041.186709004 0  247293.1100123104 605823.8307887657 0  246458.2798550911 593168.8646574575 0  252840.0183145193 588226.5564648228 0  249828.2874404451 584740.7888937403 0  255409.5660975206 600458.8956828594 0  260819.9733392385 574219.403683011 0  252584.2262054711 605722.6603825617 0  254049.8830611471 592547.4852571967 0  250015.4356193061 598425.2225922942 0  245872.072249477 577604.9761853142 0  262002.1583249522 579753.4663046852 0  257732.6630933878 586227.970805314 0  250242.5556457866 577017.3316409125 0  244921.6453001869 581816.6358421432 0  256520.3890639471 580904.824006648 0  240779.0970645865 599524.6679555867 0  257100.1829219198 574459.5922545703 0  239912.2630002034 595231.1172704464 0  244703.0875078634 590068.6945953515 0  242549.5490268674 592874.3693043783 0  251586.0465921376 581796.2215047925 0  246643.189997516 596527.447801719 0  251049.7658069622 591057.6752245198 0  253014.5731561695 596998.6601086652 0  238680.2197353724 584542.2309791476 0  259715.365803504 591937.1938619445 0  254097.157218761 575731.4494927844 0  246806.6408589328 586139.0877599345 0  246136.1179750556 602959.471719323 0  253520.7033332401 602835.180253843 0  244125.4295793909 607538.9817227355 0  252546.8895354472 599881.3279113505 0  258289.0983523553 600397.640191779 0  247518.7952199645 583037.3718217331 0  263140.3959879661 582529.2228421422 0  262894.8586894067 585442.3590432997 0  256968.6320599076 593040.7691844478 0  243573.0187527719 600218.2795730785 0  258888.5766127351 595139.7745218446 0  262588.7569809347 576734.8569237856 0  259318.4257992262 580601.2540325444 0  249963.3812725965 607065.7205847671 0  257494.5307999607 583482.5893534871 0  258906.4757205145 572278.8089438241 0  237751.446593475 587300.5805003279 0  255142.4708720699 604956.7580261135 0  258485.4978753244 597756.9250383095 0  255516.7820591553 587791.39641967 0  239758.4692108706 601926.8203218657 0  255873.0092222999 577739.5085867504
[...]
<PointData  Scalars="f_32-0"> 
<DataArray  type="Float64"  Name="f_32-0"  format="ascii">4.6620699632181926e+06  4.7459573521165065e+06  4.8470261782801999e+06  4.9287893646002719e+06  4.9862409219591860e+06  5.0691673167895833e+06  5.0924494157984974e+06  5.1046061129061496e+06  5.1063074571505785e+06  5.1334497800361309e+06  5.1400406300652586e+06  5.1410174327862319e+06  5.1680344822735032e+06  5.3224034533568593e+06  5.4126010756972320e+06  5.4904863703339444e+06  5.5915793266361905e+06  5.6975156956308410e+06  5.7091371504253298e+06  5.7255567961583128e+06  5.8088652120993948e+06  5.8731454364381135e+06  5.9443187462173281e+06  5.9812719946827432e+06  5.9989535732368706e+06  6.0367463004157394e+06  6.0475044882973954e+06  6.0674216676973514e+06  6.1069904826574028e+06  6.1338169683535881e+06  6.1423081445576996e+06  6.1658734511547191e+06  6.2206350871702367e+06  6.2618571160149472e+06  6.2690908430445520e+06  6.3005611277027195e+06  6.3348490554572958e+06  6.3647788806406409e+06  6.3842387039394025e+06  6.4014690776475482e+06  6.4261331970507186e+06  6.4491246600576192e+06  6.4702679194570668e+06  6.4895831203347677e+06  6.5069573634723527e+06  6.5105753375358908e+06  6.5196942354085045e+06  6.5306718683640286e+06  6.5384588380421046e+06  6.5418530627034428e+06  6.5426743508842457e+06  6.5434433728958489e+06  6.5434754484270755e+06  6.5450356239798497e+06  6.5479468215618813e+06  6.5477391204391243e+06  6.5477900224527493e+06  6.5488753456097208e+06  6.5459510558510413e+06  6.5353059134441623e+06  6.5212256628653212e+06  6.5080936339049479e+06  6.4844328821904911e+06  6.4392244889545543e+06  6.4206915035763457e+06  6.4381610332113737e+06  6.4478790306991339e+06  6.4506600609626621e+06  6.4536195686153285e+06  6.4584563517809594e+06  6.4656221441983143e+06  6.4920787624201812e+06  6.5006674772419063e+06  6.5046863421097808e+06  6.5054924278676249e+06  6.5011472423617169e+06  6.4881571323504802e+06  6.4729162165710395e+06  6.4512505330261532e+06  6.4437484792890782e+06  6.4429908640529541e+06  6.4430527006221674e+06  6.4428809906173125e+06  6.4411575246325722e+06  6.4397046360567501e+06  6.4381730284135696e+06  6.4326210996309696e+06  6.4181226578576956e+06  6.3934240972497454e+06  6.3810589914162373e+06  6.3888669575399533e+06  6.3934866069653099e+06  6.3950811387941027e+06  6.3937547727049161e+06  6.3943003428437021e+06  6.3928775182853201e+06  6.3925358649590909e+06  6.3904319745421559e+06  6.3893546459144596e+06  6.3869220311853103e+06  6.3658423098949706e+06  6.3400496769826068e+06  6.3017005944250189e+06  6.2588237194466153e+06  6.1997623041203329e+06  6.1174931037044190e+06  6.0090429379011607e+06  5.8846939059086349e+06  5.7513931574203381e+06  5.6252109055461213e+06  5.4376520958474912e+06  5.3330395335683124e+06  5.2960123395986576e+06  5.2929635363458013e+06  5.3036843293621931e+06  5.3094899460410476e+06  5.3153482103910521e+06  5.3229176673907479e+06  5.3292516644594939e+06  5.3342770411512041e+06  5.3354444534733919e+06  5.3354559870384559e+06  5.3336597368761962e+06  5.3289632281545447e+06  5.3272547721887501e+06  5.3305397336216103e+06  5.3328112775066197e+06  5.3335426502511548e+06  5.3335441058796765e+06  5.3311718337331777e+06  5.3164145891818237e+06  5.3114131878499687e+06  5.3018757101825271e+06  5.2955795061102165e+06  5.2860778970804252e+06  5.2749194869640935e+06  5.2609426909131100e+06  5.2476114933324400e+06  5.2398993017976079e+06  5.2388471121939160e+06  5.2387017979189837e+06  5.2384908804011457e+06  5.2383613103598319e+06  5.2384020295389462e+06  5.2383962694825456e+06  5.2377102109033205e+06  5.2338359229367962e+06  5.2145161918661771e+06  5.1484709861123571e+06  5.0607199828699259e+06  4.9917957464010129e+06  4.9552997676755423e+06  4.9406623323716065e+06  4.8858062426410662e+06  4.8467798362379558e+06  4.8152566475866325e+06  4.8056037132642064e+06  4.7750291947580054e+06  4.7353455357476026e+06  4.7224824717607591e+06  4.7231048221254824e+06  4.7003301854782449e+06  4.6322978146366924e+06  4.5272834419134008e+06  4.4202452965325983e+06  4.2624184412299087e+06  4.1236452654896569e+06  3.9838685258611366e+06  3.8938992517961645e+06  3.8428795981661710e+06  3.7382878428894226e+06  3.6848232995632682e+06  3.6800721007400001e+06  3.6711598416802664e+06  3.6310330212510079e+06  3.5909638554328252e+06  3.5087893010211480e+06  3.4317856782939322e+06  3.3887493630294278e+06  3.3697416162730660e+06  3.3481548809599751e+06  3.2705524391864222e+06  3.2600398776566116e+06  3.2620457909529293e+06  3.2577941506082145e+06  3.2614749205343500e+06  3.2710894839180633e+06  3.2939357812578608e+06  3.3381119082711022e+06  3.4182534966728631e+06  3.5112591571723507e+06  3.6003291812980282e+06  3.7305153408712861e+06  3.8093189632524205e+06  3.8957789797275872e+06  4.0044815633330881e+06  4.1272465381331090e+06  4.2962830522335991e+06  4.4946515039778529e+06  4.6050089445270803e+06  5.1400998040895639e+06  5.7142988021639101e+06  6.4977937040915675e+06  6.5418094999212194e+06  6.5475975230935952e+06  6.4069893598278342e+06  6.5043461345202327e+06  4.7235076033770675e+06  6.3842273854919430e+06  6.3947604955240712e+06  5.3316401267743725e+06  5.3283662021870371e+06  5.2382679701349679e+06  5.2383924694258766e+06  6.4810794617761094e+06  5.1400801133002741e+06  5.1399246167280208e+06  6.4915012365989853e+06  6.5033879652642990e+06  4.7235109328534789e+06  6.3857664239194598e+06  6.3947614834594494e+06  6.4511011323861917e+06  6.4880856100636488e+06  6.3940577817874178e+06  6.4898181254025549e+06  6.3940489356467035e+06  4.8332543441104433e+06  5.9304965460297950e+06  6.2952111248925589e+06  4.8973453150970293e+06  3.7926136441893354e+06  5.3255968054442080e+06  6.2299399791829409e+06  5.6227016579400143e+06  5.8370409044870073e+06  4.4176497261136025e+06  4.4238881730741356e+06  6.2950233523999415e+06  4.9141599180316823e+06  6.4414560654343721e+06  5.9832653461917685e+06  5.3585772310592392e+06  5.1845138959361902e+06  6.1146674589731125e+06  3.4183931121397605e+06  6.3499568419250669e+06  5.6730940275674574e+06  6.1548470021497272e+06  4.8614115841384446e+06  3.8679124765796894e+06  4.8888807223346578e+06  4.5710799789483435e+06  5.1352639775339449e+06  4.3551450965651218e+06  6.3704175877229227e+06  3.6817278705694880e+06  6.2658442739104778e+06  5.8432747483856212e+06  6.0974564074188285e+06  4.8284806660040254e+06  6.1548954025870217e+06  5.6726994022158068e+06  5.9991382610889925e+06  5.2830019567574328e+06  5.3781914188642129e+06  4.0896612770998669e+06  5.4293019988627974e+06  6.3942620726043573e+06  6.2526689856761098e+06  6.5070971421227595e+06  6.1586648988762675e+06  6.0484579201859999e+06  5.1438766919640135e+06  4.2073771707309550e+06  4.5827118988826340e+06  5.5972071986503452e+06  6.3532656171347704e+06  5.6960331854021670e+06  3.5394475450515435e+06  4.1087210538408756e+06  6.4194419969808022e+06  4.5884229537784467e+06  3.4422766181727839e+06  5.3096875156067982e+06  6.2853679501599707e+06  5.8975009810832618e+06  5.1805367016173508e+06  6.4222785148005877e+06  4.0489756449830472e+06  5.1379395511400318e+06  5.2276773156382423e+06  5.8632312420045352e+06  5.0186650125022307e+06  4.6220302163552381e+06  4.7927781040957868e+06  5.4522757020378551e+06  4.6904555273057995e+06  4.6885735244562607e+06  4.7151387210273044e+06  5.0661174683240559e+06  6.4858539808356808e+06  6.3662668270021221e+06  5.0038148316416470e+06  6.4601346497414298e+06  6.2623120794603722e+06  6.2709401235026848e+06  6.3479503984612525e+06  5.2497208833315289e+06  5.2974298744122237e+06  5.9983708647340350e+06  6.1557970818295553e+06  5.3919413381357156e+06  6.3671002629145160e+06  5.1012499126088228e+06  5.8566266767545305e+06  3.3091311963580037e+06  4.7674929167601634e+06  6.0229507875245074e+06  6.2999929294237485e+06  5.8177716618425371e+06  6.1098351253974652e+06  5.6378396091079237e+06  6.1729627015530746e+06  3.5560220001463369e+06  4.9728276029458400e+06  4.9881938083127178e+06  6.3289976481244164e+06  5.9895970666926932e+06  3.9263441048415331e+06  6.3745659396295305e+06  5.7711597526400788e+06  6.4003994094729256e+06  3.3889886863452722e+06  6.4924101805760767e+06  6.4897323180034962e+06  4.9267079232118949e+06  5.1177947099880371e+06  6.4908816968063330e+06  6.5081029929033089e+06  6.3775174096970577e+06  6.3827731130348379e+06  5.3249420259441277e+06  3.7133711847747616e+06  6.4023845850232542e+06  6.2814904863293720e+06  4.9404407757417802e+06  5.0948267894421825e+06  4.9764129709780896e+06  6.5067820750421556e+06  6.4890313389375880e+06  5.5533233602539105e+06  6.4375408125770204e+06  6.4653968496759087e+06  6.4780145569752743e+06  6.5093501443732949e+06  5.2974239416752383e+06  4.7275785612114100e+06  5.3267476370203206e+06  3.5563753220627126e+06  5.0489691350758160e+06  3.7833709279360501e+06  5.3162321180452537e+06  6.5384542007413404e+06  5.2941155086362660e+06  5.3283241884109499e+06  6.3788661426601782e+06  5.2739358279295750e+06  3.3826084028220824e+06  5.3268561106943721e+06  4.1756961071387636e+06  4.8181139659296582e+06  6.3824378714095661e+06  6.3633716181812128e+06  5.2406543660268662e+06  6.5378850118781002e+06  4.5242509595461264e+06  6.4124263285750858e+06  5.8451046826223340e+06  3.2805952346770857e+06  3.7564741239725458e+06  3.9236197354874620e+06  6.1303770328297494e+06  6.4186381675176332e+06  6.3933258452097019e+06  6.0140953699563565e+06  6.5009266141097480e+06  5.6649119693149999e+06  4.7251023056793893e+06  4.7246764794806223e+06  3.4616850759210689e+06  6.4906846662195725e+06  6.4947335306992633e+06  6.4963695096963830e+06  6.2714202981256545e+06  6.3557568141099634e+06  6.4928657816986535e+06  6.4619087885546209e+06  5.3070428324770015e+06  6.5469566194419563e+06  6.5463233584638117e+06  5.2173259323118068e+06  3.5612687199328160e+06  5.2378085178098651e+06  6.4341793039269019e+06  5.4046428367552292e+06  5.2726161319025680e+06  6.5399524403508082e+06  5.2646526807130314e+06  6.1807452310335673e+06  4.3658833170946157e+06  4.9451891747702034e+06  4.9123206732194973e+06  4.9790132443022216e+06  6.3895795769358836e+06  5.0864971112035131e+06  5.1136669551793523e+06  5.0541586783212218e+06  5.1114493219289342e+06  4.9719315191980880e+06  3.2780126126971990e+06  3.3294564644059711e+06  5.1992653095203508e+06  4.8955338232772313e+06  5.3350868339590505e+06  5.3349736030485872e+06  6.5443871385687962e+06  5.9451671491786214e+06  5.7962640059069060e+06  5.4506003330635186e+06  5.3647773581856377e+06  5.3502638102259738e+06  5.3086572214357303e+06  5.3313973503083559e+06  5.2997007947036475e+06  5.2890638885808652e+06  5.2926718580546146e+06  5.2773259411293324e+06  5.2885212582362164e+06  5.2838245241791233e+06  5.1327166569842845e+06  5.1890037878902303e+06  4.5810125428377464e+06  4.6473425470000589e+06  4.5743989669354865e+06  4.4793772651840961e+06  4.5169716898094947e+06  4.3487700202185214e+06  4.4667509236951340e+06  4.4077801359396679e+06  4.0869430759399859e+06  3.9541783204753362e+06  3.4817988011014308e+06  3.5545219367508856e+06  3.5335637007106883e+06  3.6587335917398892e+06  3.5801884633906479e+06  3.7703917055587713e+06  3.7571893743152260e+06  3.6382419538416071e+06  3.8567329518917683e+06  3.7913072630229788e+06  3.9000660400930187e+06  3.8352688895535199e+06  3.9685349328724765e+06  4.1700909232134530e+06  4.0371489485506569e+06  4.8510444046290172e+06  4.6042048419231037e+06  4.7092435881046699e+06  4.9682977256557085e+06  6.0499420294172466e+06  5.9650643529532403e+06  5.8978189761711331e+06  5.9773034253456593e+06  6.2316936756866192e+06  6.3335516677747192e+06  6.2838136197670270e+06  6.3326141435216274e+06  5.0199332764879139e+06  4.7998378923753500e+06  4.8278136758170053e+06  4.9381844281764785e+06  3.8089303678028691e+06  4.0747712150564804e+06  3.7076611010711682e+06  3.9445415908322851e+06  3.9073495964849177e+06  3.6555187901383182e+06  5.3529056748552546e+06  5.4668119441493563e+06  5.2551388394728163e+06  5.3902873507843586e+06  5.1976308437679391e+06  6.2476207178716566e+06  6.1675898168084286e+06  5.6482466579651907e+06  5.5291643889972866e+06  5.7492720403127680e+06  5.5098279502190966e+06  5.7225856354485117e+06  5.6307968967179628e+06  5.7569298198190117e+06  5.9200414369869232e+06  5.8457984034868572e+06  4.1374490400575204e+06  4.3033317421914870e+06  4.4961869713456025e+06  4.2645774078320339e+06  4.4958075246376321e+06  4.3768003528527906e+06  4.6357638211232778e+06  4.2479864002692616e+06  4.2432475388661558e+06  4.5193572111204667e+06  4.5671356459710104e+06  6.2295269115286991e+06  6.3481402206315529e+06  6.2832288137764214e+06  6.3539549888016088e+06  6.4209268375902027e+06  6.0746165505020265e+06  5.9043474498819681e+06  6.0489365821181554e+06  5.9859406572605176e+06  5.2727268662463343e+06  5.4065483782129800e+06  5.3751988539947122e+06  5.2332936021023700e+06  6.1881824561657691e+06  6.1361502168374388e+06  6.0799716187482662e+06  6.0591893741913233e+06  3.5224356414269740e+06  3.4575202879551500e+06  5.6731991283548400e+06  5.6357561781477537e+06  5.5669744936963329e+06  6.1542634987424640e+06  6.0802880078093978e+06  6.2161271303607505e+06  6.0915778009018032e+06  4.9417624513098635e+06  4.7770407555854553e+06  4.8187903422750803e+06  4.9127090194767034e+06  4.7865927666930053e+06  4.8345251956885932e+06  4.0345264506367231e+06  3.6875151869580760e+06  3.9729725174934231e+06  3.6902683115751906e+06  3.8915037937379414e+06  3.8149792071145605e+06  4.7389649989337521e+06  5.0353585862377789e+06  4.9788301943851570e+06  4.9922015318939630e+06  4.3512463754768306e+06  4.6245967980945958e+06  4.6323941526226988e+06  4.6751646365163187e+06  4.3867055128724901e+06  4.5414104162782868e+06  5.1423934332837583e+06  5.1904351231255792e+06  5.0733416604065960e+06  5.0561889771898314e+06  4.2260782948133713e+06  4.4709149503524620e+06  4.1914288324360359e+06  4.4912770826737750e+06  3.8743662675455492e+06  3.5499246334314593e+06  3.8418486324248919e+06  3.5918639649821157e+06  3.6980088308245712e+06  3.6172647201296822e+06  3.7965693452733625e+06  5.8295846899142070e+06  5.7457955758359786e+06  5.9199095242053410e+06  5.8939826274959287e+06  6.1028155256119063e+06  4.7297324236321710e+06  4.7554989095335165e+06  6.0918570651400024e+06  5.7709017873710766e+06  5.5666835570176244e+06  5.5368227103507882e+06  5.7232654914281769e+06  6.0832755621279376e+06  5.9982767872939184e+06  5.2677273449741025e+06  5.2743303812693479e+06  5.4922342417077031e+06  5.2286315343118161e+06  4.0624234999603448e+06  4.1296846442224407e+06  4.0055466145696538e+06  5.4142301499826685e+06  5.5320534716832601e+06  6.3379262522007572e+06  6.3814962493577767e+06  6.2094443830491723e+06  6.3129489319425514e+06  6.2059050473667150e+06  6.2173129141284497e+06  6.0815986015664740e+06  6.0232625789293898e+06  5.0518191149444403e+06  4.0604992311365767e+06  5.5258280495689977e+06  5.5740437088631364e+06  3.5394834132322753e+06  3.6499078227862385e+06  3.5485591494152164e+06  4.3582818588475194e+06  4.6447187681515487e+06  5.3226804325549258e+06  5.1200885244372590e+06  5.1392417767090602e+06  5.1095929142818358e+06  5.2527596394229224e+06  5.2503677166244667e+06  5.2169341070310101e+06  5.2495059742900142e+06  5.8411012949262671e+06  5.8173156390787615e+06  4.9984819406588748e+06  4.8192915292542810e+06  4.7297727870491864e+06  4.8400881018429650e+06  4.7221303417158369e+06  4.6125358571541943e+06  4.8931404309089659e+06  5.2036709397075800e+06  5.0498431688526012e+06  6.3226156313522467e+06  5.2548518493619962e+06  4.8732697635132568e+06  5.7334566500634290e+06  5.9062481927236244e+06  6.0525867133465772e+06  5.9668015356937451e+06  3.8533205315809352e+06  3.4638186358679165e+06  3.8143736593139716e+06  5.2872891094089597e+06  3.6660310927291904e+06  5.2645828321010824e+06  4.3658769331608126e+06  4.0485936495199022e+06  5.2421283831509398e+06  4.9094078701816378e+06  6.0142981808487726e+06  3.7922035547661823e+06  3.9293291831292170e+06  3.7361060256957728e+06  3.8453701206779173e+06  3.6701770488630184e+06  5.6777160066352859e+06  4.4589729383950680e+06  4.5328298318012478e+06  4.4979913360632267e+06  6.3171379792782683e+06  5.5231437697481168e+06  5.3165004079258246e+06  5.2970016832720703e+06  5.3063789615417356e+06  3.4940620093236323e+06  6.1043232004379490e+06  6.1238776803589305e+06  3.9972412445994280e+06  3.9495993065422070e+06  4.8676388452943396e+06  4.9389082897282466e+06  4.4680613082526196e+06  5.0975091709656958e+06  5.6605648217480415e+06  5.7225019847011156e+06  5.6061849065896077e+06  5.7471002884322125e+06  4.2233540591132231e+06  3.9806059276405880e+06  4.1090602950639073e+06  4.0471817099096295e+06  6.1210836479573678e+06  4.0269241840439839e+06  4.1657031051576696e+06  4.2357756838785298e+06  5.2183008771338435e+06  5.2272902165663913e+06  5.2530617517276257e+06  5.1498056544981087e+06  4.1473797772865947e+06  3.9384585847825236e+06  4.0533793563851812e+06  5.0922257079487424e+06  6.2506963382248105e+06  6.2771134348592311e+06  6.3057481165341921e+06  5.2551443826947547e+06  6.0405972908325074e+06  5.1800139032468777e+06  4.7963979652917152e+06  4.7488251314202845e+06  4.8212258269241685e+06  5.8625356231221817e+06  5.6345547555463668e+06  5.6877400131664751e+06  3.6634306984558110e+06  3.6019984043002184e+06  3.5628832941737315e+06  4.9417098489397876e+06  5.0149101894974085e+06  5.0104548277517548e+06  4.9238060244428795e+06  5.9486594508674769e+06  3.7094239005651223e+06  3.7139315377119388e+06  3.7235758266208493e+06  5.2758458679761086e+06  5.2584488456234960e+06  5.2676901730886996e+06  4.4570608507035067e+06  4.5310870501845200e+06  4.5701319132638052e+06  3.8983729238406410e+06  3.5984109458836550e+06  3.6041822356261066e+06  5.2698857690399252e+06  5.2783312419697708e+06  5.2751033890040908e+06  5.2576833718614662e+06  5.2638175324253263e+06  5.2539555799376424e+06  5.2714940330701629e+06  4.5903677977752220e+06  3.6520170383570609e+06  4.9218399800212346e+06  6.0709153071505092e+06  4.8838686197531214e+06  4.8513742219841760e+06  3.7232275307473172e+06  3.9849856699631792e+06  3.9553649359305943e+06  4.0863568254120890e+06  4.0476645171892340e+06  3.8654604639091566e+06  5.2258373481841339e+06  5.1883142954964256e+06  5.1594195654751398e+06  5.7111072336380146e+06  5.6825198805413712e+06  4.0815452776590446e+06  4.1673215955536664e+06  4.3773267554378659e+06  4.4221333733718228e+06  4.6003562887109928e+06  4.2981780528352447e+06  4.2131193599521341e+06  4.1494142962903604e+06  4.6632986686522802e+06  6.3115347592687523e+06  5.2979567103070980e+06  5.3654961467611333e+06  5.2439856020536330e+06  6.0983040942674745e+06  6.1095302082151789e+06  6.0700542773967814e+06  4.8663529975195667e+06  4.9562862396181012e+06  4.8939054575360250e+06  4.5777343325633258e+06  5.0545374649681011e+06  5.0262779401099160e+06  3.9644264835620038e+06  3.9390010669965809e+06  5.8753666492408328e+06  5.8687306294107800e+06  5.9128568925611367e+06  4.0675123455828982e+06  3.6574838807303510e+06  </DataArray> 
</PointData> 
</Piece>
</UnstructuredGrid>
</VTKFile>