<?xml version="1.0"?>
<VTKFile type="UnstructuredGrid"  version="0.1"  >
<UnstructuredGrid>
<Piece  NumberOfPoints="784" NumberOfCells="1320">
<Points>
<DataArray  type="Float64"  NumberOfComponents="3"  format="ascii">266913.131276 586512.314988 0  266738.13716 587762.325998 0  266363.132677 589012.328643 0  266175.641078 590169.601714 0  265666.575631 591040.7699119999 0  264875.64001 591687.766419 0  264900.636161 591845.049083 0  266088.14152 592012.3229499999 0  265561.959259 592661.17101 0  264288.136855 593037.368683 0  263865.194033 593999.8486949999 0  263850.641856 593236.729596 0  263625.634872 592756.525286 0  262689.574249 593299.848918 0  262475.636737 594003.0907310001 0  261934.554452 594340.929792 0  261725.631329 594932.094409 0  261729.256443 595728.498809 0  262138.136044 595012.330523 0  262288.141035 596262.333669 0  261488.994028 597511.480605 0  261234.15567 598316.338928 0  260815.635063 599014.863821 0  261400.643658 599389.7367680001 0  261322.963374 600022.185065 0  261119.455248 600931.061306 0  261607.436504 601293.0629359999 0  260807.446929 602089.899812 0  260025.642878 602988.868697 0  259613.135827 603937.3854499999 0  259050.643123 604100.987861 0  258411.880065 603988.6335979999 0  257764.357469 604449.872569 0  257971.239668 605320.429125 0  258041.396867 605740.635381 0  257188.143339 606987.394312 0  256038.141198 608112.3554550001 0  254788.141633 609087.4026939999 0  253588.140656 609812.362881 0  252338.135706 609737.4048949999 0  251088.138116 609787.404055 0  249963.12851 610287.399466 0  248613.130524 610462.365857 0  247363.132198 610687.407659 0  246113.130532 610837.411551 0  245832.347438 610918.209918 0  245016.946433 610958.5639439999 0  244313.129646 610762.372259 0  244400.622144 611378.093316 0  243939.669208 612460.8930899999 0  242960.649733 611984.892792 0  242170.381438 611919.647351 0  241888.122919 611112.375656 0  241393.380757 610467.6456149999 0  240594.157528 611306.369822 0  240525.621947 610804.648112 0  240363.123632 610512.3745050001 0  239113.123247 610262.374278 0  239813.12126 609037.412459 0  240588.122952 607812.368199 0  241013.119545 606625.9534560001 0  241454.373249 605724.888025 0  242238.120107 604687.3993 0  243088.121248 603462.362766 0  242860.319451 603007.3932640001 0  241563.116617 603812.361344 0  241778.400913 604327.642217 0  242059.837234 604824.879102 0  241475.620201 604923.2402390001 0  241462.182234 605449.881372 0  240906.219606 605674.888222 0  240241.856192 606891.125066 0  239891.734044 607841.012479 0  239048.653431 608724.889805 0  238118.054545 608974.895967 0  238888.111029 607337.406468 0  239738.119992 606212.362729 0  240288.12044 605687.4075229999 0  240380.212307 604729.521696 0  239347.309632 604603.204501 0  238888.112036 604387.408787 0  237913.11173 604687.401386 0  236784.172023 604499.882783 0  236883.408793 603717.08334 0  236154.933927 603595.565605 0  235688.103943 602912.369264 0  235763.108033 601662.366516 0  236363.110805 600412.35884 0  236738.107995 599162.356577 0  236525.607944 598482.2412899999 0  236138.109208 599362.357613 0  235725.063048 600325.4466510001 0  235091.948926 601408.5220979999 0  235188.10921 600312.366344 0  234375.602405 600833.9674270001 0  234663.109308 599912.358011 0  234138.105122 600062.365644 0  233955.307245 599029.561063 0  233338.103791 598387.401556 0  233988.09795 597862.356384 0  235138.101489 596637.3947750001 0  235563.1039 595387.392428 0  236513.103639 594212.356312 0  237163.10684 592987.3929869999 0  238313.103031 591862.3515540001 0  239513.107028 590812.3512640001 0  240638.102135 589787.387271 0  241463.109549 588587.378486 0  242294.489816 587443.735215 0  242913.101099 586512.341804 0  243544.066915 585474.859604 0  243040.448415 585184.975583 0  242438.10214 585337.38015 0  241313.102353 586562.339499 0  240538.107104 587787.382449 0  240114.641085 588588.939407 0  239388.100256 589437.382238 0  238188.104456 590512.346358 0  236938.100507 591362.349798 0  235813.10453 592537.396388 0  234864.502938 593178.7753880001 0  234463.097651 592862.357267 0  235113.0965 591662.3545979999 0  235713.101522 590412.346099 0  235777.688431 589976.7582779999 0  234943.583145 590706.265132 0  234462.482256 591490.2841159999 0  233801.497784 592112.940187 0  233388.099101 591787.394208 0  234013.093099 590437.393065 0  234776.217248 587148.7548100001 0  235163.093726 586562.3486189999 0  235313.098918 585483.229012 0  235250.59732 584662.298153 0  235588.093896 583337.379493 0  236329.432041 582199.858992 0  237188.096234 581462.3349939999 0  237463.088521 580212.335511 0  238350.592558 579057.652616 0  238591.415797 578574.847681 0  238313.094106 577612.328905 0  239229.696732 577695.769664 0  240195.161018 577513.008613 0  240614.996733 577149.8518770001 0  240663.091715 577412.332622 0  240288.092486 578662.334085 0  239942.357258 579508.095811 0  240438.100019 580212.3334220001 0  241338.095553 580387.375355 0  241238.099828 579137.369157 0  241788.097003 577887.370889 0  241983.554649 577241.9220939999 0  242054.178239 576927.8105029999 0  242588.100699 575737.366175 0  243149.324833 574898.583978 0  243695.278626 573919.517981 0  244268.494418 573724.8454239999 0  244995.134063 573930.2767810001 0  245417.314363 573391.601898 0  243450.599125 571859.479773 0  245776.797908 572599.8353060001 0  246779.639852 572973.285167 0  248034.741935 573186.082054 0  249413.10651 573162.3205520001 0  250496.922226 573271.1521899999 0  251613.105126 573237.3551319999 0  252421.824577 572846.032906 0  253256.245022 572580.4733130001 0  253739.471933 571960.9547369999 0  254174.511864 572149.8346569999 0  254484.944333 571684.194807 0  254384.108649 570891.346712 0  254344.002752 570218.26407 0  255025.609604 570829.0294979999 0  255715.005913 570489.264586 0  256218.846343 570774.828355 0  256834.349083 570508.5908 0  257390.092515 570014.308325 0  257624.431042 568493.478911 0  259355.811717 569380.021819 0  260033.372814 569617.066669 0  262679.741751 570320.699974 0  263289.115756 569524.817815 0  263463.114338 570512.301061 0  264638.198419 570687.3443539999 0  265058.220065 571334.378467 0  265447.561421 572077.90485 0  265488.125257 573137.3446020001 0  265131.937715 573963.293593 0  265432.389648 575093.068786 0  265638.122314 576338.029955 0  265750.630817 577371.8281319999 0  265738.570663 578561.9098850001 0  265875.630866 579139.630549 0  266213.129247 579862.311842 0  266563.130472 581112.314509 0  266238.135356 582362.310259 0  265938.12863 583612.320897 0  265738.131342 584762.3210189999 0  266875.638633 585365.358768 0  264018.7239399826 593650.4646671159 0  262236.3944351029 595831.1252656333 0  241846.246678 605206.1436625 0  240200.622106 608424.8903290001 0  240943.4862974102 610939.7757535663 0  236550.6094 599787.3577085 0  238528.1212051503 608102.9081793013 0  244413.4891967989 572609.5960859474 0  236382.0474488751 598808.3067022427 0  235369.601910944 600933.5380148316 0  235413.099011 591037.3503485 0  235446.2251831186 590266.6553871984 0  240475.5921005 578037.3333535 0  240413.173949154 577324.4280286073 0  240574.037899 606283.0066440001 0  263857.9179445 593618.2891454998 0  264153.4303974913 593343.916675058 0  242042.1833925 604946.7714812499 0  241650.3099635 605465.51584375 0  244613.6985165 572229.6575395 0  236631.8579695 598822.2989335 0  235140.029068 600860.444221 0  241767.7287175 604874.0596705 0  242140.15174975 604817.0853906251 0  234781.8558075 600573.1668855001 0  242091.167571125 604881.9284359375 0  234519.3558565 600373.162719 0  254604.8337712102 583989.0014118921 0  250699.5846056537 594617.3297041012 0  250540.4796469513 602258.2940568649 0  248483.7490186612 580334.7345534252 0  258549.2190328319 577893.951823392 0  257067.0067473103 590016.5327808241 0  243285.0921999099 596333.923437875 0  248333.1386145258 589098.0389905117 0  256142.8445072741 595883.3911551933 0  260245.1368072523 583315.2785712298 0  253472.3380211276 578932.2908163272 0  246432.3347504817 599884.5019511909 0  261555.9240922556 588041.186709004 0  247293.1100123104 605823.8307887657 0  246458.2798550911 593168.8646574575 0  252840.0183145193 588226.5564648228 0  249828.2874404451 584740.7888937403 0  255409.5660975206 600458.8956828594 0  260819.9733392385 574219.403683011 0  252584.2262054711 605722.6603825617 0  254049.8830611471 592547.4852571967 0  250015.4356193061 598425.2225922942 0  245872.072249477 577604.9761853142 0  262002.1583249522 579753.4663046852 0  257732.6630933878 586227.970805314 0  250242.5556457866 577017.3316409125 0  244921.6453001869 581816.6358421432 0  256520.3890639471 580904.824006648 0  240779.0970645865 599524.6679555867 0  257100.1829219198 574459.5922545703 0  239912.2630002034 595231.1172704464 0  244703.0875078634 590068.6945953515 0  242549.5490268674 592874.3693043783 0  251586.0465921376 581796.2215047925 0  246643.189997516 596527.447801719 0  251049.7658069622 591057.6752245198 0  253014.5731561695 596998.6601086652 0  238680.2197353724 584542.2309791476 0  259715.365803504 591937.1938619445 0  254097.157218761 575731.4494927844 0  246806.6408589328 586139.0877599345 0  246136.1179750556 602959.471719323 0  253520.7033332401 602835.180253843 0  244125.4295793909 607538.9817227355 0  252546.8895354472 599881.3279113505 0  258289.0983523553 600397.640191779 0  247518.7952199645 583037.3718217331 0  263140.3959879661 582529.2228421422 0  262894.8586894067 585442.3590432997 0  256968.6320599076 593040.7691844478 0  243573.0187527719 600218.2795730785 0  258888.5766127351 595139.7745218446 0  262588.7569809347 576734.8569237856 0  259318.4257992262 580601.2540325444 0  249963.3812725965 607065.7205847671 0  257494.5307999607 583482.5893534871 0  258906.4757205145 572278.8089438241 0  237751.446593475 587300.5805003279 0  255142.4708720699 604956.7580261135 0  258485.4978753244 597756.9250383095 0  255516.7820591553 587791.39641967 0  239758.4692108706 601926.8203218657 0  255873.0092222999 577739.5085867504
[...]
<PointData  Scalars="f_32-0"> 
<DataArray  type="Float64"  Name="f_32-0"  format="ascii">2.9614501398453366e+07  2.9791619752396613e+07  2.9993771698652443e+07  3.0152740893790424e+07  3.0258338243996304e+07  3.0409164420848034e+07  3.0457505396112788e+07  3.0493361871920872e+07  3.0494069241790816e+07  3.0528491269965544e+07  3.0543569109541103e+07  3.0541035792559005e+07  3.0571659252365239e+07  3.0820149064807352e+07  3.0988631892039686e+07  3.1143974988472484e+07  3.1361299395224001e+07  3.1608065386540841e+07  3.1639231095655005e+07  3.1675839070534617e+07  3.1864493403707992e+07  3.2011507941382464e+07  3.2175078554314055e+07  3.2261680193715576e+07  3.2302284902224887e+07  3.2387638073576681e+07  3.2412073540355980e+07  3.2453952588715930e+07  3.2534858908112675e+07  3.2588746575708479e+07  3.2604935431487955e+07  3.2649176951984439e+07  3.2754560552589290e+07  3.2835660015540075e+07  3.2849898604050614e+07  3.2909821119597867e+07  3.2972582500729661e+07  3.3025305973712493e+07  3.3058298604226775e+07  3.3085592218789741e+07  3.3124100733289111e+07  3.3160152715987414e+07  3.3192938938725017e+07  3.3222789358366676e+07  3.3249752851729229e+07  3.3255402445278589e+07  3.3269662997932058e+07  3.3287092762231324e+07  3.3299956224454220e+07  3.3305672372263379e+07  3.3306874988330990e+07  3.3308007518745493e+07  3.3307632754373949e+07  3.3309459422281627e+07  3.3314240306986891e+07  3.3313843068397202e+07  3.3313820610493280e+07  3.3315577316617429e+07  3.3310204733898085e+07  3.3290567780070774e+07  3.3263920883961242e+07  3.3238478822230041e+07  3.3191445934171423e+07  3.3095801716156766e+07  3.3050525090440601e+07  3.3075385229226630e+07  3.3093317196720198e+07  3.3098505457961600e+07  3.3104011731142592e+07  3.3113068276883844e+07  3.3126445664883673e+07  3.3175703276225660e+07  3.3191668308639187e+07  3.3199215568037536e+07  3.3200752400070727e+07  3.3192570839897130e+07  3.3168419727216385e+07  3.3140042702692710e+07  3.3099080489495926e+07  3.3083780478873294e+07  3.3081748109134406e+07  3.3081143298931003e+07  3.3080504085723765e+07  3.3076720700848851e+07  3.3073480786089513e+07  3.3070181188993629e+07  3.3058379909944292e+07  3.3027577142515071e+07  3.2974187666865773e+07  3.2946388149945874e+07  3.2962578493220344e+07  3.2972449635549683e+07  3.2975892624386534e+07  3.2973052334852830e+07  3.2974287400391683e+07  3.2971215319695521e+07  3.2970514331441782e+07  3.2965987574937880e+07  3.2963672098448366e+07  3.2958385748815827e+07  3.2912386392984755e+07  3.2855100409054875e+07  3.2767742084068354e+07  3.2667687252984647e+07  3.2524640046388522e+07  3.2318339223406114e+07  3.2036334314618673e+07  3.1701752217189491e+07  3.1326546282949246e+07  3.0958497469955165e+07  3.0394163545822784e+07  3.0083826338475205e+07  3.0008430376369376e+07  3.0176820830302168e+07  3.0372751003365181e+07  3.0461530466949694e+07  3.0543203557910956e+07  3.0635976407442607e+07  3.0700714041533925e+07  3.0745206485730536e+07  3.0755121755731687e+07  3.0755221417095419e+07  3.0740032491218399e+07  3.0699609270223312e+07  3.0685572280858312e+07  3.0716495748613365e+07  3.0735795665258255e+07  3.0741989763616253e+07  3.0742004744934905e+07  3.0722037009879220e+07  3.0593960012126617e+07  3.0550855222613480e+07  3.0475882330413487e+07  3.0431100684635069e+07  3.0368066869156454e+07  3.0300426195808079e+07  3.0227420025143385e+07  3.0178424025853503e+07  3.0166809000988327e+07  3.0176237867873095e+07  3.0185615513526227e+07  3.0184827809882753e+07  3.0188593195865050e+07  3.0190455078737244e+07  3.0190226720688984e+07  3.0175503520748388e+07  3.0125970122484412e+07  2.9988110455526873e+07  2.9685981047577854e+07  2.9409860166936778e+07  2.9220795842754286e+07  2.9130178588281777e+07  2.9095554938166853e+07  2.8970067439782210e+07  2.8882868329861816e+07  2.8812887821117960e+07  2.8787944707394440e+07  2.8706668760001719e+07  2.8623553032962769e+07  2.8648535041061532e+07  2.8604508849072330e+07  2.8507084710986979e+07  2.8284475563901443e+07  2.7997002718292754e+07  2.7757531988224123e+07  2.7496653482538640e+07  2.7349399805450346e+07  2.7273193803413808e+07  2.7262291537346106e+07  2.7266297638103861e+07  2.7301615893314265e+07  2.7335124588218376e+07  2.7340342270984497e+07  2.7337066511959717e+07  2.7350369558424890e+07  2.7365077054331660e+07  2.7409562133229304e+07  2.7472181566724230e+07  2.7525572407173108e+07  2.7513466557449989e+07  2.7512239694827657e+07  2.7546789742945474e+07  2.7556662801635407e+07  2.7554858016530611e+07  2.7558613119077805e+07  2.7555573275103878e+07  2.7547762113624666e+07  2.7529860484674297e+07  2.7499406863692090e+07  2.7462208367078707e+07  2.7446571991706137e+07  2.7468042462605409e+07  2.7583805246705662e+07  2.7703986507508326e+07  2.7874384953833032e+07  2.8116280096392911e+07  2.8377486797294866e+07  2.8739872517011426e+07  2.9202322998627950e+07  2.9484029072629094e+07  3.0542745660710029e+07  3.1649929365315236e+07  3.3218202205299925e+07  3.3302600471515678e+07  3.3313633453493297e+07  3.3003716983305912e+07  3.3198574471632618e+07  2.8639055996870212e+07  3.2952803136937413e+07  3.2975198238620739e+07  3.0722789157720529e+07  3.0697091841949992e+07  3.0186512579638265e+07  3.0190067751465537e+07  3.3155255991924465e+07  3.0542725862098340e+07  3.0540341690981701e+07  3.3205667130743738e+07  3.3229251396382757e+07  2.8639061341294840e+07  3.2957231169285674e+07  3.2975199926474176e+07  3.3099321199367236e+07  3.3198814437071741e+07  3.2973753186005611e+07  3.3202294729051653e+07  3.2973734598146871e+07  2.8739385814005703e+07  3.1879648327383950e+07  3.2843347112992354e+07  2.8611008428497151e+07  2.6757693787534226e+07  3.0083077808713384e+07  3.2610927020558916e+07  3.0945079299007319e+07  3.1785120589397710e+07  2.8456961577865683e+07  2.7338686082364257e+07  3.2795436255994301e+07  2.9824319024370011e+07  3.3126579827154279e+07  3.1983492371031962e+07  2.9857770092818275e+07  2.9667650514070746e+07  3.2504317758411765e+07  2.7266690316948891e+07  3.2984682739700709e+07  3.1086660027824089e+07  3.2500937190912779e+07  2.8689102406762000e+07  2.7441766380286518e+07  2.9070391673660263e+07  2.7801829553024687e+07  2.9409167258789532e+07  2.7668157659757379e+07  3.2930283089078732e+07  2.7039311712424323e+07  3.2685557563178506e+07  3.1602083825726449e+07  3.2272806481009148e+07  2.8616196435677201e+07  3.2450638416226421e+07  3.1014003256368760e+07  3.2149260791404292e+07  3.0252050448762611e+07  3.0719282045306362e+07  2.6951811747561265e+07  3.0412388276383508e+07  3.3016109088115145e+07  3.2786974171544980e+07  3.3241825999386165e+07  3.2554569128135052e+07  3.2394746718626603e+07  2.9460903407753292e+07  2.8332283409479368e+07  2.9228286005950134e+07  3.1043772764497958e+07  3.2905257762683056e+07  3.1521238816033315e+07  2.7264320890588481e+07  2.7481505099766273e+07  3.3103805700188424e+07  2.8459065225689813e+07  2.7367794051901862e+07  3.0500997990850661e+07  3.2872712032407567e+07  3.2035781944587078e+07  2.9374143848902799e+07  3.3040700700279176e+07  2.6787886329170637e+07  3.0394154318699636e+07  2.9818558516062774e+07  3.1639740757214330e+07  2.9170000737467371e+07  2.8134491531540602e+07  2.9808423356226362e+07  3.0227996854077939e+07  2.8055659609762665e+07  2.8296777759713810e+07  2.9203173996592294e+07  2.9731190085532401e+07  3.3211783017240334e+07  3.2997342476516880e+07  2.9147600095939178e+07  3.3149278581410009e+07  3.2701358389405560e+07  3.2767181070304796e+07  3.2875115614816822e+07  3.0095274902972568e+07  2.9968178325489864e+07  3.2211458434780143e+07  3.2616481244719584e+07  3.0184375276661050e+07  3.2978673973936953e+07  2.9201041543769926e+07  3.1708509150377717e+07  2.7485876286838830e+07  2.8289657246498317e+07  3.2113487755854581e+07  3.2769587634720080e+07  3.1526504919275708e+07  3.2313241740160905e+07  3.1021326661109887e+07  3.2459349935774419e+07  2.6950371236999575e+07  2.8825228798387438e+07  2.9030259971110042e+07  3.2830516335589368e+07  3.1993849849717859e+07  2.7814001221593678e+07  3.3038367554041710e+07  3.1376171763250999e+07  3.2991585982239887e+07  2.7407058711547844e+07  3.3209756591384571e+07  3.3202772824020486e+07  2.9002692606398471e+07  3.0484129993104354e+07  3.3204586077716745e+07  3.3249840843049038e+07  3.2939994221437238e+07  3.2949425111115351e+07  3.0668554766392052e+07  2.7214890470060516e+07  3.3021499769902878e+07  3.2872426187272742e+07  2.9080404220337659e+07  3.0452811534905050e+07  3.0188810715538897e+07  3.3236368375057988e+07  3.3200759297966901e+07  3.1226006648955774e+07  3.3071671234272789e+07  3.3152251919981390e+07  3.3178753634386718e+07  3.3253063496856365e+07  2.9966135102892198e+07  2.8528897493698079e+07  3.0677609956557401e+07  2.7334270344459619e+07  3.0345464743671715e+07  2.7602951032844372e+07  3.0585434122987568e+07  3.3297105615896419e+07  3.0399620365483098e+07  3.0697865342374973e+07  3.2942280678584013e+07  2.9918493709630951e+07  2.7471990015501380e+07  3.0684413201823436e+07  2.7253889992812715e+07  2.8806342253984619e+07  3.2948837673923690e+07  3.2907199480098031e+07  3.0127019662434179e+07  3.3297657135886300e+07  2.7886304727910038e+07  3.3016065758087382e+07  3.1936102831853967e+07  2.7533958762866881e+07  2.7258844400365364e+07  2.7096355036120880e+07  3.2579751579339966e+07  3.3052400412119668e+07  3.2991835579478312e+07  3.2331329981713910e+07  3.3224562940588359e+07  3.1510393658521384e+07  2.8626928674759582e+07  2.8626929062816720e+07  2.7422116738365032e+07  3.3204044775924429e+07  3.3212120771634500e+07  3.3215441726717480e+07  3.2854004740909666e+07  3.2891246758529056e+07  3.3226458986999255e+07  3.3176567555414509e+07  3.0439710514045946e+07  3.3312482242715172e+07  3.3311038981470093e+07  2.9928042448607273e+07  2.7403248905251168e+07  3.0159086129120007e+07  3.3092297813671235e+07  3.0958692134251267e+07  3.0257398238991994e+07  3.3302266705412023e+07  3.0017865130656045e+07  3.2673897365657318e+07  2.8830004071154207e+07  2.9102766451413397e+07  2.9029862937407788e+07  2.9178055514058407e+07  3.2964103635630589e+07  3.0441328356133200e+07  3.0501063670506891e+07  3.0372315036824275e+07  3.0492176474674895e+07  3.0220851930442542e+07  2.7533739580105055e+07  2.7479006594313160e+07  3.0579708234169744e+07  2.8979568047614522e+07  3.0752085665799726e+07  3.0751138374963641e+07  3.3307890415817074e+07  3.1869665605375141e+07  3.1462373508364875e+07  3.0457823287022948e+07  3.0179395681262407e+07  3.0129656231341135e+07  3.0023748551857341e+07  3.0072052441080816e+07  2.9988680576730564e+07  3.0065785776303314e+07  2.9978814795237403e+07  2.9984360268843938e+07  3.0192494563300498e+07  3.0074898598050248e+07  2.9526965546478391e+07  2.9769186570809472e+07  2.8136805842072155e+07  2.8283449535751510e+07  2.8092201593937203e+07  2.7883552272671875e+07  2.7944139854499530e+07  2.7625847410399098e+07  2.7822977963063441e+07  2.7698944395336315e+07  2.7280718232564166e+07  2.7212418880946159e+07  2.7436106744052649e+07  2.7451710776976079e+07  2.7435354162982184e+07  2.7506633229962170e+07  2.7445449629338413e+07  2.7639961261749011e+07  2.7603061473358940e+07  2.7473117002035208e+07  2.7793266836351700e+07  2.7656344488526136e+07  2.7849801493489187e+07  2.7737553378312748e+07  2.8004020308009014e+07  2.8410844208805315e+07  2.8145781302448727e+07  2.8804765249660555e+07  2.8268704869778108e+07  2.8556451010392092e+07  2.8976098249126531e+07  3.2228306462459508e+07  3.2017045426865783e+07  3.1757271645744834e+07  3.1999006730447367e+07  3.2711362728600860e+07  3.2927521228394762e+07  3.2806953887309313e+07  3.2914375854569323e+07  2.9019300239166491e+07  2.8366788487728436e+07  2.8398497484673712e+07  2.8692654254069656e+07  2.7061728892948810e+07  2.7063941150509909e+07  2.6789692157649998e+07  2.7038628214902300e+07  2.6724983639849275e+07  2.6805346429997034e+07  3.0431520484510358e+07  3.0581559638145808e+07  2.9698691166824698e+07  3.0114049614507016e+07  2.9871124744522933e+07  3.2646309660002958e+07  3.2454361512377616e+07  3.0967161117093191e+07  3.0701742875394646e+07  3.1297966858478304e+07  3.0580825275509879e+07  3.1248130326120790e+07  3.1005002060618751e+07  3.1458877780614503e+07  3.1970018248540930e+07  3.1737023725884385e+07  2.7856344852448408e+07  2.8372431419300962e+07  2.8853803886306111e+07  2.7972630581924643e+07  2.7480073160415012e+07  2.7433009035689179e+07  2.7975035900711957e+07  2.6985216489747006e+07  2.7008443680687223e+07  2.7708929594330486e+07  2.7686541948911838e+07  3.2661086436195668e+07  3.2915456960446537e+07  3.2781799599611320e+07  3.2921086898188192e+07  3.3078551794107810e+07  3.2235924738913521e+07  3.1765915412629612e+07  3.2157209247305751e+07  3.1987065252141651e+07  2.9560796486814804e+07  3.0007468569728527e+07  3.0017506897040009e+07  2.9488077313121136e+07  3.2656528076715525e+07  3.2528327932192244e+07  3.2447333377486769e+07  3.2369774129527621e+07  2.7126006350048285e+07  2.7223222003729120e+07  3.1030453889622830e+07  3.1038986514454577e+07  3.0679291563306574e+07  3.2472215495095477e+07  3.2335203409581952e+07  3.2644358566161245e+07  3.2320198774811503e+07  2.8914096822004847e+07  2.8491713660308193e+07  2.8480716831634913e+07  2.8719508757015958e+07  2.8599775928703610e+07  2.8769683450947832e+07  2.7842116339900460e+07  2.7269746421559766e+07  2.7411836071317300e+07  2.7091398566579353e+07  2.7625293460128296e+07  2.7529246892034244e+07  2.8777784051282156e+07  2.9172774854264222e+07  2.9385473398666870e+07  2.9005996343114220e+07  2.7275302852999475e+07  2.7865269235248186e+07  2.8054235434255112e+07  2.8067182980629142e+07  2.7452724841588169e+07  2.7826495912907235e+07  2.9405620298572674e+07  2.9658461847750351e+07  2.9255194101830773e+07  2.9109393702335902e+07  2.7542703075644631e+07  2.8098228415536977e+07  2.7111715793767218e+07  2.7882141040443450e+07  2.6927042711999059e+07  2.7221381974715844e+07  2.6788481193858527e+07  2.6935394911411084e+07  2.7132548289703298e+07  2.7209451597564608e+07  2.7044260065923497e+07  3.1566739133221712e+07  3.1330912279601634e+07  3.1808548212501045e+07  3.1735101120649554e+07  3.2290161967821300e+07  2.8367060785203267e+07  2.8314919122989006e+07  3.2293750749494836e+07  3.1345751466866195e+07  3.0624732156498693e+07  3.0577990947755802e+07  3.1193642234527037e+07  3.2371121948862288e+07  3.2179124393113595e+07  3.0163442032586560e+07  3.0137589759870220e+07  3.0867737283911683e+07  3.0243461176481850e+07  2.6818921697587788e+07  2.7092060540831637e+07  2.7010684507066764e+07  3.0347037914924350e+07  3.0716586112955067e+07  3.2904386193031564e+07  3.2998559441729948e+07  3.2682702779122457e+07  3.2899852349776536e+07  3.2705543476460185e+07  3.2664651522082612e+07  3.2392443465987831e+07  3.2311069595609356e+07  2.9072130612014335e+07  2.8047145145287044e+07  3.0637069642435290e+07  3.1150360993284620e+07  2.7111813017840996e+07  2.7387723244305030e+07  2.7344628976192985e+07  2.8006167384806037e+07  2.8802715708548833e+07  2.9767293585408259e+07  2.9486040673114371e+07  2.9239354397822980e+07  3.0132152975372810e+07  2.9845047564944915e+07  2.9861871400445145e+07  2.9852672124544512e+07  2.9914174687796775e+07  3.1578552282984428e+07  3.1503213657239251e+07  2.8998297159582455e+07  2.8677644173816916e+07  2.8156401008010931e+07  2.8546797086888969e+07  2.8273204858284704e+07  2.8097287132500410e+07  2.9473346797434583e+07  2.9643400082203735e+07  2.9186667878447153e+07  3.2882556966246903e+07  2.9659625115499824e+07  2.8532455589286178e+07  3.1300203766438764e+07  3.1773343123219106e+07  3.2161697752457157e+07  3.1930571816320989e+07  2.7697640597187240e+07  2.7387151083946247e+07  2.7147072980422772e+07  2.9941078185081996e+07  2.7459764837522242e+07  2.9939013797913317e+07  2.7546478889186911e+07  2.7143708979694217e+07  2.9967315298627954e+07  2.8862021933050424e+07  3.2117512593206685e+07  2.6884619497187927e+07  2.6855963351327032e+07  2.6721059873788122e+07  2.6729469680683844e+07  2.6767146220001969e+07  3.1131849167798154e+07  2.7379449470019761e+07  2.7643952862014163e+07  2.7503823473978288e+07  3.2852271667188067e+07  3.0468653714365732e+07  2.9699359987499565e+07  2.9663597481619265e+07  2.9741786832086578e+07  2.7101309798921559e+07  3.2372906406126168e+07  3.2413958923360266e+07  2.7609519236116305e+07  2.7626000184991982e+07  2.8909932514099911e+07  2.9009218614073861e+07  2.7531860074247196e+07  2.9237583256643586e+07  3.0984344463574100e+07  3.1184940992275581e+07  3.0792733206281077e+07  3.1268295150481276e+07  2.7076961953039013e+07  2.6915688052589636e+07  2.7017581737712294e+07  2.6976146692482017e+07  3.2476010480227374e+07  2.7249324613802854e+07  2.7503211973326527e+07  2.7738984782811269e+07  2.9524479141343251e+07  2.9451492918699194e+07  2.9558028928477082e+07  2.9405199091695916e+07  2.6884091214929674e+07  2.6737254347470295e+07  2.6789163346328974e+07  2.9602177503128052e+07  3.2716055967787232e+07  3.2774573263371896e+07  3.2839364846576743e+07  3.0050477834287405e+07  3.2304213057098731e+07  2.9414018809860114e+07  2.8331849416256845e+07  2.8216068919608653e+07  2.8408234489058003e+07  3.1653873653513208e+07  3.1017857593139775e+07  3.1169365354292870e+07  2.6925470497410737e+07  2.6870685270345096e+07  2.6916146302949227e+07  2.8760385211336914e+07  2.8963337929505445e+07  2.8923467181227062e+07  2.8671125576388933e+07  3.1886225363914192e+07  2.7523831746088702e+07  2.7479774281689074e+07  2.7519849746179450e+07  2.9945351840736084e+07  2.9899317335794035e+07  2.9919974570434779e+07  2.7676015435203534e+07  2.7853656902498446e+07  2.7992571343278434e+07  2.7008607272022478e+07  2.7434191055538844e+07  2.7391926862359073e+07  2.9992486759547401e+07  3.0097191179389518e+07  3.0038842848848645e+07  2.9964057322741661e+07  2.9973064385337029e+07  2.9990031793166935e+07  2.9960854204756167e+07  2.8092522561318532e+07  2.7467859311023228e+07  2.8903992758056555e+07  3.2274750103702571e+07  2.8540438232901014e+07  2.8460501244160745e+07  2.6890256893792335e+07  2.6848660295106899e+07  2.7221737893150218e+07  2.7260527632166862e+07  2.6866019203786578e+07  2.6713574046719883e+07  2.9768947932589438e+07  2.9578589571748506e+07  2.9674369972686242e+07  3.1156010179414012e+07  3.1154792237454966e+07  2.7837638705451936e+07  2.8088152832462601e+07  2.7199684232037589e+07  2.7342937513887841e+07  2.7820044186402217e+07  2.7100612479524106e+07  2.7036792364932850e+07  2.6868135508327309e+07  2.8001520819249757e+07  3.2845985519649591e+07  2.9651766840473603e+07  2.9875487489311155e+07  2.9567963222978611e+07  3.2450992191252958e+07  3.2463040974860035e+07  3.2380464057979986e+07  2.8593924216737892e+07  2.8853609047428206e+07  2.8620327006545305e+07  2.7964670256330509e+07  2.9077921123945970e+07  2.9040657042288136e+07  2.6841273896345265e+07  2.6958436398816768e+07  3.1690654213448070e+07  3.1672697566471029e+07  3.1790861989655443e+07  2.7043087968464840e+07  2.7425375423069000e+07  </DataArray> 
</PointData> 
</Piece>
</UnstructuredGrid>
</VTKFile>