<?xml version="1.0"?>
<VTKFile type="UnstructuredGrid"  version="0.1"  >
<UnstructuredGrid>
<Piece  NumberOfPoints="3002" NumberOfCells="5870">
<Points>
<DataArray  type="Float64"  NumberOfComponents="3"  format="ascii">323455.6100285493 6048753.88242996 0  323455.6100285493 5954782.59950515 0  405920.1480513444 5954782.59950515 0  405920.1480513444 6048753.88242996 0  405920.1480513444 6001768.240967555 0  323455.6100285493 6001768.240967555 0  364687.8790399469 5954782.59950515 0  364687.8790399469 6048753.88242996 0  364687.8790399469 5996367.117560402 0  323455.6100285493 6025261.061698757 0  382226.6271443229 6022560.499995181 0  405920.1480513444 5978275.420236353 0  323455.6100285493 5978275.420236353 0  353897.8957397301 6022560.499995181 0  344071.7445342481 5954782.59950515 0  385304.0135456456 5954782.59950515 0  405920.1480513444 6025261.061698757 0  354379.8117870975 5975574.858532775 0  381582.8168806895 5978840.396198289 0  384950.2598624413 6001768.240967555 0  344643.0480768835 6003429.02033719 0  344071.7445342481 6048753.88242996 0  385304.0135456456 6048753.88242996 0  339717.0321562298 5986078.187627405 0  337515.036058786 5969821.016310448 0  368062.2614420265 6013076.224998265 0  368062.2614420265 6032044.774992097 0  393987.6142659165 5988729.699941677 0  405920.1480513444 6013514.651333156 0  392856.2821527076 6034589.119828064 0  393514.9611654527 5968369.338068204 0  339399.8087404341 6032061.482581838 0  323455.6100285493 6013514.651333156 0  374995.9462927963 5965504.865595459 0  354379.8117870975 6037976.901948514 0  338123.9088969378 6017031.529131207 0  367397.3120126425 5982072.559192053 0  351882.5752379905 5991998.990225234 0  376945.425450199 5991232.708824487 0  392265.0061656896 6013300.936254065 0  357029.7426706699 6006608.947964352 0  380093.6207558212 6036880.127749795 0  323455.6100285493 5966529.009870751 0  405920.1480513444 6037007.472064359 0  405920.1480513444 5966529.009870751 0  323455.6100285493 6037007.472064359 0  333763.6772813987 6048753.88242996 0  405920.1480513444 5990021.830601954 0  323455.6100285493 5990021.830601954 0  362879.3643765316 5966837.319094267 0  348367.6438548031 5965604.161682394 0  334493.1989038612 5996935.948935225 0  395068.5043068817 6023875.372615605 0  348216.0324377587 6013504.844950221 0  379305.9090074943 6011603.390019651 0  372523.5158233726 6003480.000732267 0  395435.2039568929 5999384.346358113 0  395612.080798495 5954782.59950515 0  333763.6772813987 5954782.59950515 0  395612.080798495 6048753.88242996 0  374995.9462927963 6048753.88242996 0  374995.9462927963 5954782.59950515 0  354379.8117870975 6048753.88242996 0  354379.8117870975 5954782.59950515 0  335074.5981535012 6007206.680367459 0  391925.2695590468 5978591.908877409 0  371969.1707190623 6022560.499995181 0  383872.162544519 5969415.106147043 0  358038.7139835292 5984533.09712744 0  369699.869182786 5973102.2359358 0  369841.9126663716 6041099.453006387 0  343176.7440329155 5994428.220622956 0  362933.5332293962 6024385.235173292 0  330640.1760208776 5984148.625419154 0  348684.7494355051 5983110.856817525 0  399094.9690929834 6007537.420809742 0  345447.6324516311 5974162.84917082 0  332859.7749513451 6039150.972778062 0  344517.044630671 6024057.945416138 0  332973.1214415312 6025037.914505113 0  341428.0126373461 6040493.820728126 0  385874.264691618 5992757.40885039 0  350337.3662538711 6030387.535304286 0  359887.2373602368 6016186.250094838 0  377097.8989316926 6029115.217702097 0  338917.7109078235 5961484.016839475 0  329495.5261590715 5972402.215053552 0  336644.7280634616 5978216.610794215 0  330688.6715098422 5962480.256438018 0  359899.8039476132 6031963.415584587 0  399746.255941904 6030426.523907755 0  385511.6875144855 6030368.508996127 0  387377.735783329 6040763.821024337 0  398832.192399829 5974431.100387635 0  387992.9498994246 5962432.032572681 0  405920.1480513444 5984148.625419153 0  364925.7641745284 6005782.953640081 0  361769.877068089 6041226.651684469 0  398452.9199001931 6040850.732439541 0  398946.6205243983 5962252.502309519 0  362305.5577564609 5975984.89789681 0  356822.8065216601 5998470.186307689 0  386900.7115926162 5984820.732438302 0  329528.0119279922 6032067.230024892 0  331139.6939744562 6013813.572928222 0  398457.5876798834 5982541.698799337 0  405920.1480513444 6019387.856515957 0  398685.5166750694 6017257.578706384 0  348587.9424884976 6042755.309150081 0  369841.9126663716 5960143.732550304 0  380149.979919221 5960143.732550304 0  359533.8454135222 5960172.384722514 0  377147.8814772839 5972649.581024994 0  341756.3455763521 6010124.092444684 0  355615.8176864882 5966311.193813809 0  369144.4338274571 5989807.770003954 0  375185.9047422862 5983510.422041401 0  323455.6100285493 6007641.446150355 0  391856.7960121195 6005888.565703365 0  371978.0245217044 5996361.134308098 0  405920.1480513444 5995895.035784755 0  378877.1880032702 5998073.745937059 0  359056.6617417652 5991643.489540118 0  399278.8743430426 5993436.466134224 0  386116.8775939071 6009922.097099247 0  323455.6100285493 6019387.856515957 0  388994.7833819839 6019826.789191471 0  348897.6207366391 5998116.079250046 0  345456.3301153719 6035064.814295612 0  323455.6100285493 6042880.677247159 0  334124.3013408988 5990072.953472659 0  377097.8989316926 6018059.782440464 0  323455.6100285493 5995895.035784755 0  342871.8474798963 5980154.238874755 0  373596.9793292385 6035659.183886081 0  380149.979919221 6048753.88242996 0  376327.9292813152 6042294.581731233 0  329163.3548105369 6004704.843558955 0  350303.9432136903 6007093.032074522 0  383982.6552804571 6015912.664375832 0  345515.490569988 5988567.439252969 0  379019.812877927 6004678.052169549 0  365541.9137639466 6018750.691894444 0  349225.7781606728 5954782.59950515 0  352493.3399767278 5960815.406895458 0  363683.8130458911 5986976.225872464 0  386666.791301207 5975084.583584332 0  368937.6553346639 5966171.092344863 0  400003.9882214358 5968352.273777306 0  328776.0063842635 5992958.433193355 0  339958.4428758043 5999572.344589042 0  354577.7732363954 6012555.454074449 0  328609.6436549741 6048753.88242996 0  382053.0280278458 5988228.496807038 0  330708.6817934912 5978212.973348036 0  372084.7734679543 5978495.086505585 0  358568.2738174705 5971419.415228934 0  328931.2672829705 5998832.905089681 0  323455.6100285493 6031134.266881558 0  405920.1480513444 5972402.215053552 0  405920.1480513444 6031134.266881558 0  323455.6100285493 5972402.215053552 0  405920.1480513444 5960655.804687951 0  323455.6100285493 5960655.804687951 0  405920.1480513444 6007641.446150355 0  323455.6100285493 5984148.625419153 0  405920.1480513444 6042880.677247159 0  346648.7613474604 5960023.05127712 0  342415.3891593561 5966358.988213831 0  350507.6510228226 5971111.740321856 0  391773.9667214506 5994456.117700323 0  338875.8905424621 6026088.827345025 0  361429.1735454847 6010511.262533597 0  389395.7028803263 6025805.543023561 0  392895.6464692951 6043315.288173481 0  332846.8296575367 6019296.633131165 0  373337.4404588729 6009693.515402478 0  336544.3064612215 6043648.151399015 0  348610.2411382072 6019567.839754772 0  381943.4597763228 6042183.394750732 0  355630.0631288611 6028071.82801846 0  363941.5238882306 6035967.852698964 0  328179.67203552 6022271.326978176 0  401066.2857736665 5998807.415073814 0  344387.1099621175 6029612.545574771 0  393435.2235156003 5960233.556458537 0  400735.9970493424 6022675.638064924 0  393708.5772019727 6029179.837160029 0  400609.0696943338 5987857.851798974 0  361753.6614662939 6001152.171757337 0  400766.1144249197 6048753.88242996 0  353363.0524357285 6002630.165620538 0  343248.328463803 6018790.640008039 0  356419.8105951758 6043365.392189237 0  390234.385899412 6000759.497967276 0  368336.1168551637 6000220.532318851 0  328609.6436549741 5954782.59950515 0  387520.8298169724 6035372.992507171 0  400588.0280660195 6035823.299583429 0  329021.6598427091 6043194.252697862 0  393371.710206733 5983576.325812268 0  393638.9721728675 5973623.513063556 0  371727.9212466564 6017113.044457142 0  364687.2762977295 5959941.212693035 0  374995.9462927962 5960346.83186599 0  369841.9126663716 5954782.59950515 0  400766.1144249197 5954782.59950515 0  338917.7109078234 5954782.59950515 0  369841.9126663716 6048753.88242996 0  359533.8454135222 5954782.59950515 0  390458.0471720704 6048753.88242996 0  338917.7109078234 6048753.88242996 0  390458.0471720704 5954782.59950515 0  359533.8454135222 6048753.88242996 0  380149.979919221 5954782.59950515 0  349225.7781606728 6048753.88242996 0  339867.4956514095 6005339.817053361 0  333737.9460226952 6002130.523287664 0  336955.8140048417 6012008.440073739 0  377097.8989316926 6023232.32559834 0  371748.9790486701 6028016.629988787 0  338146.5171983215 5993298.164761053 0  355016.8390227688 6017610.913088997 0  393953.1528190996 6018968.416019509 0  335185.8133477239 5965142.63403323 0  328616.6041642396 5967263.80307608 0  380314.9487662361 5965460.362415641 0  354622.8993466098 6032976.142863722 0  328521.4725131759 6027215.026914048 0  334465.0783479523 6034070.534389696 0  328123.6212682287 6009699.206425843 0  381889.5169855529 5973936.741901617 0  359122.3484437474 6036790.002992895 0  386341.6533148278 5979963.279841923 0  400798.2159679119 6012477.871311778 0  388538.3765260249 5967461.292146791 0  340833.8784183678 5975728.708105717 0  355307.6239213505 5988552.151815021 0  362181.4274823388 5981261.937800813 0  353784.0322742948 5981044.538811012 0  358045.1698423899 5978741.391518688 0  328423.7350325213 6036912.015930048 0  366897.6876966125 6027277.723668203 0  347355.1745641421 5978532.307510624 0  376820.5060332146 5979033.270735624 0  349378.1778589479 6024378.632814493 0  327189.2282939323 6016451.253924556 0  338433.8773236172 6036753.902881841 0  350141.9760340559 5987605.90026687 0  363794.7083927878 5991713.491814731 0  350325.1285660182 6035273.515460094 0  382355.9358007369 5983507.499638396 0  327107.0747437811 59811
[...]
<PointData  Scalars="f_3058-1"> 
<DataArray  type="Float64"  Name="f_3058-1"  format="ascii">1.8639108148914565e-24  -5.0736064106307103e-22  1.0331530488299880e-18  2.6690909462824759e-22  -4.4424935296342501e-13  2.3967850330124351e-17  -1.0839250025639435e-16  -9.9011679224218374e-18  6.1393717389370884e-04  -9.0304900425255008e-20  5.3094415925431009e-11  2.5134424501521848e-13  -1.4040502167184747e-19  -3.2007476050864911e-11  1.2974043686210886e-19  8.1571441515574411e-17  -1.0568808076569719e-17  5.2090305060660579e-12  -1.8930118180505751e-08  1.6291698372330266e-05  3.3253911386165267e-09  -1.8519200564114091e-20  -1.9557080324649604e-19  3.2818931580627256e-13  -4.0652939300724351e-18  -4.9250302919638271e-06  -2.2286958640156276e-13  6.6012091940972814e-08  4.0425008114777254e-15  6.7957127932662866e-17  1.9241700036554899e-12  6.3802651943284576e-18  -6.3234455199932882e-18  1.7706440861729852e-12  2.2774366206403780e-14  1.9519168037033788e-13  -8.2227907550781632e-08  -3.9798603190329139e-09  -3.1483885526491962e-03  7.8474372816349680e-10  1.8909281922582885e-06  2.4444113884993447e-14  -4.0469992148125274e-21  -4.6296882006376059e-20  6.1554607176187166e-16  -1.0597386919152962e-20  -4.1458862135002115e-23  4.7090214689749922e-12  5.2386330411269398e-18  4.8545473305083114e-12  -1.4573045101362692e-16  -2.2321726823903607e-14  7.7205667924529191e-16  3.1579213862960210e-10  2.9657710383316744e-07  2.6395784788703896e-03  7.0543170477735628e-08  1.8027273478151162e-17  3.0156922035283069e-21  4.3222535184298482e-20  1.0630408823777349e-18  -8.3860434968272918e-18  1.4315198663667403e-18  -6.6538551364281843e-18  2.0591464672555772e-13  2.0246109222772160e-11  8.5327294275492574e-11  1.5785546498670289e-10  2.4169619752461565e-08  2.6189399046834900e-09  4.7901753796424168e-16  -9.9611215288895429e-12  -3.8441648742380324e-10  -2.5937503123601881e-17  -9.6367327397164125e-12  -5.5021168101464391e-12  -2.5527745583588189e-16  -8.9820455396150529e-22  4.6489432966070784e-14  1.3407144767632201e-16  -4.1025193786809366e-19  -1.0182488710253529e-04  -2.2430280400202660e-14  -3.2125712841768717e-08  -2.8904259471040231e-13  -4.5354431869699080e-19  -2.9152376751012125e-19  -4.4803890837028464e-16  -1.0185194104556854e-20  -1.1041856693058312e-13  3.9890714125267432e-18  9.3099319447060283e-13  -1.9968160080841956e-17  -4.3763033863809825e-13  1.1699170465483766e-13  4.2080487672148933e-12  -2.5593589018528731e-03  -1.0778639363548294e-15  2.4293510060885979e-20  -1.0814029472814343e-16  -1.2635510042786753e-10  -2.0051989021267863e-06  2.1177814670398458e-06  4.1836680728439619e-19  -1.2175107260305389e-16  6.2235828012142794e-12  3.8406716688586056e-16  2.5389150228761045e-12  -1.5587689827466454e-18  -1.0918087632655648e-15  1.0851685608119938e-14  -4.1517040200654495e-16  2.1904758520924379e-10  4.7017158058988386e-11  1.4179864272766632e-13  -9.3969052802054403e-05  -3.6196850273615652e-06  2.0008008423172577e-17  3.2335751933235797e-08  4.1474397301728055e-01  6.7874741020024208e-12  6.2064344173844307e-04  -1.5554986169249975e-06  2.8646483377732836e-09  -1.6747590963000096e-08  2.2058901535616762e-20  7.9193985513567898e-12  6.7788316855430107e-08  -3.0571706001296880e-17  1.3112609299078526e-22  1.1252635210952944e-13  -3.8074149358254807e-09  -9.3890607469693465e-18  2.3948567075636323e-13  -1.6466270012887937e-14  -6.5003380827993704e-19  -3.3928248343831671e-17  -1.1657909476122847e-15  -9.2605382863696759e-09  2.4778790177441711e-10  8.6212240372437275e-11  1.1069382691585054e-05  -2.3228950016577129e-08  3.7692383645450087e-20  -2.5611558822402395e-17  9.7380685769150924e-06  -5.4292308917582581e-10  7.3505421325292107e-12  9.7269298911201987e-15  2.5021173755008780e-16  1.7390076587127832e-10  1.4742835750235029e-07  1.2789324021101629e-22  -1.1365038782409296e-04  8.4859465871477184e-18  1.6505277756775261e-07  1.3769425308948051e-11  8.2336751435062889e-18  -2.9021647180219529e-21  4.0258451414109097e-14  -7.8420821954207145e-19  -2.3090044168972052e-20  -4.4542407388299271e-18  -4.0780545438488378e-22  4.1008877361753711e-13  -1.4707781343458917e-18  -5.3908778056990399e-22  -2.0261175498842744e-18  -1.4031829431497941e-17  1.7923963199244488e-13  2.1271601341310239e-06  3.8341987320905249e-16  -1.1423951143241213e-06  3.2813137183161907e-14  -1.5069496792767889e-18  8.9428583966958851e-17  -7.5436803142949071e-06  4.1531384997916055e-21  -3.2130501894585036e-12  2.6215122088915406e-17  -6.7010075289478688e-13  -5.7445786073477863e-16  -1.8174644927436639e-19  -4.5222996720666928e-12  -9.2514088027627656e-16  2.3412694946918632e-16  8.7538528159007801e-17  -5.0369169824889070e-17  -2.4208063694605147e-11  2.9918750673063464e-03  4.4285104830918279e-22  2.6356312902023964e-06  5.3098572431260247e-12  1.2719224633051035e-16  -1.1326684406542700e-07  2.2669847433821015e+00  -1.1567236779297996e-21  -6.5725020709605603e-16  -5.5366299529106117e-19  1.7427633701424091e-22  -8.5554823015528546e-10  2.0200777309454479e-11  -1.5439452804908604e-08  -1.9962271983765923e-15  -3.8941346213897630e-16  -3.8566286080988924e-18  -1.3409631313739527e-19  -1.0273753005201790e-20  3.5452078020415490e-18  -7.1383456131540266e-18  8.2621766274545381e-20  -3.9053913249584157e-21  -5.7189282100810360e-18  1.8764460666675274e-18  -1.2418286410002454e-16  -2.2310928126675572e-19  1.3880981863342115e-10  7.4288501045674658e-13  2.9043321229645293e-13  6.6418323019814170e-10  1.1439736793102422e-11  5.7174295177979984e-12  -1.1560502594944244e-09  4.6892191993899517e-13  -3.2476164398001693e-19  -1.5260326416229870e-19  1.7527659065609027e-12  8.8816976222564037e-14  1.1223607484168207e-18  5.4545106014017154e-19  3.0189660995121265e-16  1.9279042475693796e-10  -2.4641255531462097e-15  1.2628348184735598e-07  -4.1543011909320599e-13  -2.8239919218751113e-13  -5.8958335376137123e-16  -8.7754815225834423e-09  -4.2785109459724157e-09  2.0084722899103425e-10  -1.2600938349867325e-10  7.7741309743770008e-21  -1.3609626975664191e-11  -3.0943964759655973e-13  -4.4796319556469821e-08  -1.3787656981830519e-12  6.0692908561174581e-18  8.5534633947581145e-20  -7.1826448328708835e-11  6.0053931214497339e-06  7.9040344939349936e-15  -2.8980860279676704e-06  -5.8012808531361892e-19  1.5175748670082431e-14  8.3068306025893217e-17  1.8383005122984436e-03  1.0341058487297741e-10  6.1907801102594100e-11  1.7734962035050108e-08  2.1574422643989989e-17  -8.0863130628587197e-17  3.3286043564205407e-14  -2.0876119112879827e-18  -2.2876247567398278e-17  1.9143946352280205e-10  -1.6856364186027786e-07  5.2207086472792509e-18  1.4771604017571315e-04  1.1538489396520236e-14  4.3881068484999107e-09  -1.9291105427560206e-07  -3.9402979324511698e-03  1.6953471487596142e-09  1.4452072303247174e-16  -2.4084631466127215e-10  1.2220875130424072e-10  1.6517351742761610e-09  1.1470174218212330e-09  -2.5889893179973247e-07  2.3941003481332487e-12  3.7179773710854487e-11  8.5065291110823344e-12  9.2552075179249484e-08  -2.0610291745395892e-06  6.1305455391168158e-05  -5.1239529818815973e-18  3.0236627795734751e-10  6.9305383683751729e-21  -1.0710146755347041e-16  1.4715041403216326e-10  1.9856782767994974e-12  6.5215954264567993e-11  5.5122470587755786e-19  1.6227336806681176e-11  6.3982294998812764e-13  1.8437356166590830e-04  1.2457777982697439e-14  -1.9283264170425977e-20  -9.3973359578658754e-19  3.9653538675231330e-07  3.6949655278979083e-17  3.4826830003108722e-14  2.8753434925683494e-19  8.5194447734725854e-13  2.5489234598588441e-20  9.6309928309424636e-21  -7.1849231762305576e-21  1.2125263861051917e-04  9.6730649316649071e-18  -2.9066066440709320e-06  -2.1887394563473456e-17  -1.1150750225309300e-21  4.2819849238515261e-16  1.4934528073658127e-13  -1.7818254257062833e-14  1.7759951411410958e-16  -1.9083354640622276e-11  4.4940097751251467e-14  4.1588910134934436e-16  1.1698830874780254e-16  -7.6337071912708704e-15  -3.2057598549930787e-08  -4.5438599081690054e-07  1.1176040553173105e-04  1.5612702268844742e-17  -2.2021539050886484e-12  -8.7169199613825687e-16  -1.8828943620251260e-21  -3.4255286344717952e-21  1.0064665571860975e-12  2.2914807427839401e-13  4.0363367934253360e-13  3.6998911802648704e-13  -8.4802417016521909e-18  4.7281820864880491e-18  -2.1740623664541812e-17  2.1243793134307842e-04  4.2618333143987902e-11  1.2345047859906005e-14  5.2614936129250826e-09  -9.2094866410499039e-05  9.5229503583427622e-04  2.6114072276609717e-03  2.6916415061867222e-04  -1.2973250930379572e-16  9.0027955760731685e-08  9.9502101066800056e-12  3.9663532461950004e-14  -2.9872807287945503e-13  -2.2776338676815782e-12  1.5095542303530305e-22  2.4441905500212791e-21  -1.6894453763323057e-09  -3.1239573746712707e-16  2.3422215484481328e-14  -1.5733645347302137e-07  1.5568666504503036e-16  -8.9093563117260441e-10  -1.9118681963691823e-17  9.4086825941734288e-11  1.6687829954394051e-09  -1.1145910955624514e-17  2.2678333175397769e-20  -1.3869441527636828e-05  -2.9095421393008271e-09  -3.1596545293715006e-14  -5.6293812042964068e-15  -2.4125062728872514e-14  2.2433626909396149e-22  3.5379307068647397e-19  4.3870155431169038e-19  -8.3500676298152676e-06  1.3217991695084210e-10  -8.9050671378467887e-17  -2.2205402221921482e-16  2.4718686583745545e-13  -9.5349794721734930e-14  -1.9954460113206911e-16  5.5742026578424168e-17  1.7042010786079849e-08  4.4565339908530502e-09  9.8752462643341561e-13  -3.3092460426736244e-18  2.0534207629321202e-13  2.0666258814320154e-13  -6.7080623465415010e-19  -3.3162225269864946e-14  8.1587765341979536e-06  2.5377725853746645e-11  1.9617956141932430e-14  1.2817222436245558e-17  1.2095483312569281e-16  -2.0590080891341027e-20  3.1986839191002491e-14  7.5663362190956953e-06  2.6883243450168896e-12  3.3377701534353333e-14  -1.7152684683688823e-12  5.1336254521033466e-13  -2.0078812228084528e-14  1.7094379982744237e-10  -6.7487066035196469e-12  1.0112044923381004e-18  2.6919517722463138e-14  2.5834233583355628e-10  -7.5377143923311693e-11  2.4472084969904742e-10  -5.2473121078260966e-10  1.6903545197183205e-07  4.4803035312724643e-11  8.0568282969083488e-10  -1.5837494634968869e-15  6.9465815908975625e-16  3.7265935013176171e-06  -3.1722262193475313e-22  -5.6821956811182190e-06  3.3244175209706506e+00  -4.2785005997797940e-20  1.0752806387436192e-16  9.4599506952164408e-08  6.4193856100019178e-12  3.5913513576629451e-07  -1.1348176611995141e-15  -9.9031716816532450e-19  1.2029962604394921e-19  6.2817345051022649e-19  -7.5695473209079905e-19  1.6884576515235462e-10  2.5810233133843473e-11  6.7381968956682567e-14  -3.1063731902376578e-13  4.1398047655895390e-18  2.1620599407708656e-07  -1.5659098580063971e-08  2.0854929579499014e-07  7.9525196814079107e-11  -4.9866144987743689e-16  3.5542268664954641e-11  -1.6100585321205531e-08  -6.4535561713495341e-10  4.3607332270101330e-06  -1.6802369246407425e-12  1.0258173343433214e-11  -7.4333247544802984e-03  -1.4865942157509455e-19  2.1441708609964092e-11  5.4526258802782456e-13  9.6234137784261324e-10  -2.2209074814509065e-16  6.4894439837731473e-14  1.3758996681013763e-18  2.0103564346327905e-02  2.0350485842065573e-07  -1.7607006299401204e-15  8.3041916573882483e-09  7.1854523351485351e-12  3.7673658059469828e-18  1.3917603530767986e-10  1.0623517054653038e-13  -8.6323466689533955e-08  1.0977508683922238e-16  -1.1305617148908940e-16  -1.3470626277869303e-16  2.9019723352067623e-12  -2.7297950014593773e-20  -4.3266759208986348e-14  8.8109529925820160e-18  -4.8253604639755200e-11  1.5524038445654596e-11  -5.5583810376221445e-09  -3.1438622131714607e-16  7.4155940347893155e-11  1.7464643135591561e-11  6.1254306591181329e-21  -3.0141622207933965e-03  -1.2908919684427479e-16  1.5472295566081712e-12  7.8506328131980393e-13  4.9853954755769365e-09  -3.8332910954213622e-09  -7.9718267140431081e-18  9.8136953427161447e-11  -9.7219569802656005e-05  -3.5767070023746372e-16  1.0721329198430434e-11  6.4048051967989228e-13  2.5915534409520528e-15  7.2395144373330520e-18  -5.1353828620589882e-15  4.6106048716552028e-06  2.3515188439287579e-01  3.0078813294201667e-12  9.0998692911001054e-12  1.4331493673225400e-21  4.1608728315182724e-11  -2.9169045587889313e-11  9.1504648750559592e-08  5.7743483874118183e-17  2.8543959664711971e-16  6.6500101141988748e-18  -1.3912213902194449e-09  1.7328821176901528e-19  1.1770839020020421e-19  -9.8063429982643910e-20  -2.0852672682236578e-19  -7.4274491438800167e-10  -3.2565612931572515e-09  -7.1291394247057905e-10  2.8075182872746179e-17  -1.0098937809685174e-10  7.3694211093139550e-14  3.6133881885744722e-11  1.2041604713390860e-16  3.2625172230837682e-06  1.4743769237221007e-07  3.0270893515720908e-11  -4.2441559394836730e-13  4.4947558171890758e-11  6.5988228501530470e-11  4.9843227854522061e-03  1.0717730422532295e-04  1.2636817795551661e-05  -4.5466314506056928e-10  1.5268785269741031e-16  2.8793429322550876e-04  -1.5484646579945141e-17  2.6505122190954047e-17  -4.4135623942184032e-17  5.9009053881055552e-18  2.7010847537791132e-17  1.7848762228683191e-16  -4.9703650406353965e-22  6.2046891180987715e-08  -4.2113451882189293e-17  -1.1474293332557225e-20  1.7076330496297723e-18  -5.7038467963141150e-16  -1.6060074567516056e-15  1.5838993449017700e-11  5.7171452249932804e-22  1.9528054221950238e-21  -2.4569798710866740e-17  9.1807094225832307e-24  3.7296148418660026e-07  1.0238982039081130e-07  1.8492065397141588e-06  -2.6445634838207354e-06  -3.8882733452336850e-18  1.3705633155333365e-06  -4.1828227220288318e-20  4.3784076742798070e-09  3.5427945640024422e-13  5.7853577979371221e-12  -5.3902291876731973e-13  -1.3803180974086420e-13  3.0190755085849115e-09  -2.7386749145811153e-20  -7.3606426277405904e-20  7.3278781942495493e-18  1.0329066735517503e-18  -2.8298211053474054e-17  2.1406742685869949e-15  -9.9886371481268540e-11  5.3947776118377870e-12  2.6774472799425112e-19  -5.0916886229343776e-11  1.1643681210592610e-10  3.3982642945565506e-10  3.6092041855575856e-06  1.1238018789192533e-11  2.0346255320248783e-18  -1.4471455800020971e-17  9.3170043870936257e-19  2.8086240640992180e-14  5.6736298082939003e-14  -1.3425785635230434e-16  2.0458194057729384e-18  -3.7633922774377326e-16  4.1717047474388592e-13  -1.0349834503806617e-16  6.6644140492790243e-18  1.5177977575726811e-01  -4.0523551354195597e-04  3.2121953173164944e-10  6.4197077896663233e-20  -1.7473070795207395e-18  5.0246453091328286e-17  -5.1616469024025314e-18  -8.7559152547055881e-22  3.8098654011636777e-17  1.3105699034797118e-21  -1.4220650520032670e-04  1.3439440533211792e-03  -4.3105537503251502e-15  -3.8785939621255703e-14  -1.4968088932061105e-13  3.3049280399588958e-19  3.1945467310242353e-19  5.2310443958511250e-13  -4.6249022011925674e-08  2.4142657365102977e-09  3.2767649096422358e-06  2.0696699850063764e-12  -6.6639216650488185e-08  1.9534785004457893e-04  1.1444470719001597e-03  -9.3384775951457956e-14  1.5614426028127861e-13  -6.1958884038608873e-16  -1.0053584153873943e-15  -2.9177787873569240e-17  1.9266140576867567e-18  6.8182096160898173e-14  1.2441202830834204e-18  1.0721055665035492e-19  -1.4076793390981953e-14  2.2894056335802907e-18  -5.4806198916275933e-17  -5.7811205357912333e-21  6.9924312076261212e-21  -6.5726016775287019e-14  3.5015788070591666e-19  1.7091583290673319e-13  -8.9662955423741528e-16  5.4571745537219997e-14  1.5516594537186011e-16  4.2846971249447120e-08  1.1923431232801250e-11  5.5603200449650915e-11  1.0106710422090532e-13  -3.1846335395144948e-19  -3.2436988247597110e-19  4.8308544190020357e-19  6.5274041358873252e-22  6.0069217359170746e-20  -6.5908801587389931e-23  6.5333566709231960e-13  9.4012510296738144e-10  3.3557169073101072e-17  -6.2508667963097755e-16  -1.8417851341035512e-10  -8.7721430100357454e-10  1.4480653359848858e-13  3.3330885042438782e-12  1.5694083990145060e-10  -8.9884614745303946e-13  1.0726647745605671e-12  -1.1211180950639487e-15  -1.4322421405310931e-17  -1.5642898263709527e-16  8.8179597051527939e-16  -3.3924567349211538e-16  4.0622230074796488e-17  1.2502608096412704e-04  -8.0550329914642568e-13  -5.1281197400908518e-17  -9.8739353497963412e-09  4.8736275697722296e-13  -1.4185013814249987e-13  1.2931638903691601e-14  8.7122381002205874e-11  1.1213450314722555e-03  2.6361703368039793e-23  -5.4735345617584106e-23  -1.6286881725241187e-08  7.5445559271622761e-22  -6.8008718576218790e-17  1.7931731032757670e-04  -2.7020974431229707e-03  -1.4346482330412368e-04  6.9910145942504222e-20  5.3602748008169031e-17  9.3830573994391920e-03  -2.9538277208049692e-10  1.0156662173488066e-18  3.2777677086862425e-03  4.9921821648832073e-17  7.7664776132809996e-22  7.7446085325120419e-14  -1.3885522182413408e-19  1.3752512034395347e-16  3.5688290454576779e-11  -2.2425023353210988e-18  4.0338131682677090e-12  -4.8880364462903610e-18  3.0304275677705060e-05  -9.2165807358312979e-12  1.0407071886007044e-02  -5.4028387210971510e-11  7.9834115081698780e-18  3.1177930072616196e-05  9.2343587109372392e-16  1.1204594317239622e-11  -1.2291614042491901e-18  7.4005848170094895e-13  3.0024449276136179e-18  4.4306734532725321e-19  1.1508588039738157e-11  1.6830537676461792e-11  -9.9957980398472300e-19  -5.8866690555278088e-11  3.9761148745557420e-07  2.1835490358943685e-08  4.1326129258843763e-06  -1.5634774719851430e-17  -2.1418833888230010e-16  3.0084420807378103e-12  9.9180964919529361e-13  -1.7394054527675026e-06  4.2225219936881867e-17  2.5321942914396360e-16  1.3881346208228504e-16  4.5320506868815067e-16  3.0999516959405507e-14  3.8680226606287675e-17  -7.0600702423921416e-18  2.0939456060257505e-01  -2.5615508811409883e-05  9.8058727686838431e-07  4.6983462529110162e-06  -3.4520182846641088e-08  1.9620879011167468e-06  1.6120119189650816e-07  2.2795294890861680e-11  1.3419446113967821e-12  1.8569180674797647e-06  7.1319125464577417e-19  1.1893519736520950e-11  -8.4878305122758154e-17  1.1398684545920864e-08  3.0521057495572388e-09  6.2777775852776081e-09  1.8341456179104979e-08  -1.0076565392627151e-18  -5.1935596414044824e-19  2.6545802186721098e-10  3.2535184992937392e-12  1.7349849327658615e-13  3.8255980035548723e-18  -1.8242349283781714e-16  3.5898567003868178e-09  -1.0158176931783548e-09  -1.6917895967229430e-19  -6.1727196263376594e-18  1.3050325975051355e-16  1.2657136984201807e-11  8.5120685998356157e-12  -9.7809718276094074e-13  3.4909398808989153e-12  7.4286619676284551e-09  9.8086651944819865e-13  -5.7636391639252281e-08  1.9295073922308558e-22  1.7880039738015546e-19  1.6856089514558325e-18  7.1458380057376844e-13  3.2411451421099431e-14  2.1946653458666885e-19  2.3065524917969919e-20  5.1651475220189609e-21  1.1278342189619088e-20  2.4463488819957296e-11  3.4127425710410790e-12  -2.6443746266167971e-13  -9.5473126949325483e-10  5.6061393720901830e-09  2.0452375546501529e-09  2.0312566860221046e-16  6.1656133968801297e-10  1.7660869108770709e-14  5.0637260714088071e-08  -2.8605572979713509e-19  -1.4816676169381931e-15  5.6804340952909514e-16  1.4918743778088518e-15  9.2970669447860396e-15  -2.1906139961596070e-15  3.9827566782287030e-13  1.7708885648918573e-13  2.4220082920476952e-14  2.6174491176630035e-13  5.0045018345600985e-12  2.4861052493324838e-21  -3.4243392716411918e-23  -1.5503700151389783e-17  -1.2029476121030813e-16  1.3256971718600200e-20  5.5395949602004654e-18  -1.4830163168358799e-19  -8.7785913051856264e-19  7.9054047601129179e-17  5.3904251530566371e-17  1.3181924891161549e-17  -7.6232800472297609e-18  1.5669186678972622e-17  9.4376566962135893e-22  -2.0481435625249215e-19  -5.0026432622003887e-21  -2.1645263375460016e-21  2.3083018278212284e-19  -8.0844796325158744e-04  -2.4310433650653323e-09  -3.4300747328174355e-11  1.7358104904067670e-10  -1.6237812230707778e-19  -4.5997979606135680e-18  -4.0230706848432137e-17  -6.0354253400590309e-22  -2.9186530235189459e-08  8.1406690290282356e-13  -1.3257345975646727e-18  -1.8322544106201781e-07  4.3076750836828475e-20  -3.4692104667664407e-11  2.5424127074559664e-14  -3.507218353792