<?xml version="1.0"?>
<VTKFile type="UnstructuredGrid"  version="0.1"  >
<UnstructuredGrid>
<Piece  NumberOfPoints="3002" NumberOfCells="5870">
<Points>
<DataArray  type="Float64"  NumberOfComponents="3"  format="ascii">323455.6100285493 6048753.88242996 0  323455.6100285493 5954782.59950515 0  405920.1480513444 5954782.59950515 0  405920.1480513444 6048753.88242996 0  405920.1480513444 6001768.240967555 0  323455.6100285493 6001768.240967555 0  364687.8790399469 5954782.59950515 0  364687.8790399469 6048753.88242996 0  364687.8790399469 5996367.117560402 0  323455.6100285493 6025261.061698757 0  382226.6271443229 6022560.499995181 0  405920.1480513444 5978275.420236353 0  323455.6100285493 5978275.420236353 0  353897.8957397301 6022560.499995181 0  344071.7445342481 5954782.59950515 0  385304.0135456456 5954782.59950515 0  405920.1480513444 6025261.061698757 0  354379.8117870975 5975574.858532775 0  381582.8168806895 5978840.396198289 0  384950.2598624413 6001768.240967555 0  344643.0480768835 6003429.02033719 0  344071.7445342481 6048753.88242996 0  385304.0135456456 6048753.88242996 0  339717.0321562298 5986078.187627405 0  337515.036058786 5969821.016310448 0  368062.2614420265 6013076.224998265 0  368062.2614420265 6032044.774992097 0  393987.6142659165 5988729.699941677 0  405920.1480513444 6013514.651333156 0  392856.2821527076 6034589.119828064 0  393514.9611654527 5968369.338068204 0  339399.8087404341 6032061.482581838 0  323455.6100285493 6013514.651333156 0  374995.9462927963 5965504.865595459 0  354379.8117870975 6037976.901948514 0  338123.9088969378 6017031.529131207 0  367397.3120126425 5982072.559192053 0  351882.5752379905 5991998.990225234 0  376945.425450199 5991232.708824487 0  392265.0061656896 6013300.936254065 0  357029.7426706699 6006608.947964352 0  380093.6207558212 6036880.127749795 0  323455.6100285493 5966529.009870751 0  405920.1480513444 6037007.472064359 0  405920.1480513444 5966529.009870751 0  323455.6100285493 6037007.472064359 0  333763.6772813987 6048753.88242996 0  405920.1480513444 5990021.830601954 0  323455.6100285493 5990021.830601954 0  362879.3643765316 5966837.319094267 0  348367.6438548031 5965604.161682394 0  334493.1989038612 5996935.948935225 0  395068.5043068817 6023875.372615605 0  348216.0324377587 6013504.844950221 0  379305.9090074943 6011603.390019651 0  372523.5158233726 6003480.000732267 0  395435.2039568929 5999384.346358113 0  395612.080798495 5954782.59950515 0  333763.6772813987 5954782.59950515 0  395612.080798495 6048753.88242996 0  374995.9462927963 6048753.88242996 0  374995.9462927963 5954782.59950515 0  354379.8117870975 6048753.88242996 0  354379.8117870975 5954782.59950515 0  335074.5981535012 6007206.680367459 0  391925.2695590468 5978591.908877409 0  371969.1707190623 6022560.499995181 0  383872.162544519 5969415.106147043 0  358038.7139835292 5984533.09712744 0  369699.869182786 5973102.2359358 0  369841.9126663716 6041099.453006387 0  343176.7440329155 5994428.220622956 0  362933.5332293962 6024385.235173292 0  330640.1760208776 5984148.625419154 0  348684.7494355051 5983110.856817525 0  399094.9690929834 6007537.420809742 0  345447.6324516311 5974162.84917082 0  332859.7749513451 6039150.972778062 0  344517.044630671 6024057.945416138 0  332973.1214415312 6025037.914505113 0  341428.0126373461 6040493.820728126 0  385874.264691618 5992757.40885039 0  350337.3662538711 6030387.535304286 0  359887.2373602368 6016186.250094838 0  377097.8989316926 6029115.217702097 0  338917.7109078235 5961484.016839475 0  329495.5261590715 5972402.215053552 0  336644.7280634616 5978216.610794215 0  330688.6715098422 5962480.256438018 0  359899.8039476132 6031963.415584587 0  399746.255941904 6030426.523907755 0  385511.6875144855 6030368.508996127 0  387377.735783329 6040763.821024337 0  398832.192399829 5974431.100387635 0  387992.9498994246 5962432.032572681 0  405920.1480513444 5984148.625419153 0  364925.7641745284 6005782.953640081 0  361769.877068089 6041226.651684469 0  398452.9199001931 6040850.732439541 0  398946.6205243983 5962252.502309519 0  362305.5577564609 5975984.89789681 0  356822.8065216601 5998470.186307689 0  386900.7115926162 5984820.732438302 0  329528.0119279922 6032067.230024892 0  331139.6939744562 6013813.572928222 0  398457.5876798834 5982541.698799337 0  405920.1480513444 6019387.856515957 0  398685.5166750694 6017257.578706384 0  348587.9424884976 6042755.309150081 0  369841.9126663716 5960143.732550304 0  380149.979919221 5960143.732550304 0  359533.8454135222 5960172.384722514 0  377147.8814772839 5972649.581024994 0  341756.3455763521 6010124.092444684 0  355615.8176864882 5966311.193813809 0  369144.4338274571 5989807.770003954 0  375185.9047422862 5983510.422041401 0  323455.6100285493 6007641.446150355 0  391856.7960121195 6005888.565703365 0  371978.0245217044 5996361.134308098 0  405920.1480513444 5995895.035784755 0  378877.1880032702 5998073.745937059 0  359056.6617417652 5991643.489540118 0  399278.8743430426 5993436.466134224 0  386116.8775939071 6009922.097099247 0  323455.6100285493 6019387.856515957 0  388994.7833819839 6019826.789191471 0  348897.6207366391 5998116.079250046 0  345456.3301153719 6035064.814295612 0  323455.6100285493 6042880.677247159 0  334124.3013408988 5990072.953472659 0  377097.8989316926 6018059.782440464 0  323455.6100285493 5995895.035784755 0  342871.8474798963 5980154.238874755 0  373596.9793292385 6035659.183886081 0  380149.979919221 6048753.88242996 0  376327.9292813152 6042294.581731233 0  329163.3548105369 6004704.843558955 0  350303.9432136903 6007093.032074522 0  383982.6552804571 6015912.664375832 0  345515.490569988 5988567.439252969 0  379019.812877927 6004678.052169549 0  365541.9137639466 6018750.691894444 0  349225.7781606728 5954782.59950515 0  352493.3399767278 5960815.406895458 0  363683.8130458911 5986976.225872464 0  386666.791301207 5975084.583584332 0  368937.6553346639 5966171.092344863 0  400003.9882214358 5968352.273777306 0  328776.0063842635 5992958.433193355 0  339958.4428758043 5999572.344589042 0  354577.7732363954 6012555.454074449 0  328609.6436549741 6048753.88242996 0  382053.0280278458 5988228.496807038 0  330708.6817934912 5978212.973348036 0  372084.7734679543 5978495.086505585 0  358568.2738174705 5971419.415228934 0  328931.2672829705 5998832.905089681 0  323455.6100285493 6031134.266881558 0  405920.1480513444 5972402.215053552 0  405920.1480513444 6031134.266881558 0  323455.6100285493 5972402.215053552 0  405920.1480513444 5960655.804687951 0  323455.6100285493 5960655.804687951 0  405920.1480513444 6007641.446150355 0  323455.6100285493 5984148.625419153 0  405920.1480513444 6042880.677247159 0  346648.7613474604 5960023.05127712 0  342415.3891593561 5966358.988213831 0  350507.6510228226 5971111.740321856 0  391773.9667214506 5994456.117700323 0  338875.8905424621 6026088.827345025 0  361429.1735454847 6010511.262533597 0  389395.7028803263 6025805.543023561 0  392895.6464692951 6043315.288173481 0  332846.8296575367 6019296.633131165 0  373337.4404588729 6009693.515402478 0  336544.3064612215 6043648.151399015 0  348610.2411382072 6019567.839754772 0  381943.4597763228 6042183.394750732 0  355630.0631288611 6028071.82801846 0  363941.5238882306 6035967.852698964 0  328179.67203552 6022271.326978176 0  401066.2857736665 5998807.415073814 0  344387.1099621175 6029612.545574771 0  393435.2235156003 5960233.556458537 0  400735.9970493424 6022675.638064924 0  393708.5772019727 6029179.837160029 0  400609.0696943338 5987857.851798974 0  361753.6614662939 6001152.171757337 0  400766.1144249197 6048753.88242996 0  353363.0524357285 6002630.165620538 0  343248.328463803 6018790.640008039 0  356419.8105951758 6043365.392189237 0  390234.385899412 6000759.497967276 0  368336.1168551637 6000220.532318851 0  328609.6436549741 5954782.59950515 0  387520.8298169724 6035372.992507171 0  400588.0280660195 6035823.299583429 0  329021.6598427091 6043194.252697862 0  393371.710206733 5983576.325812268 0  393638.9721728675 5973623.513063556 0  371727.9212466564 6017113.044457142 0  364687.2762977295 5959941.212693035 0  374995.9462927962 5960346.83186599 0  369841.9126663716 5954782.59950515 0  400766.1144249197 5954782.59950515 0  338917.7109078234 5954782.59950515 0  369841.9126663716 6048753.88242996 0  359533.8454135222 5954782.59950515 0  390458.0471720704 6048753.88242996 0  338917.7109078234 6048753.88242996 0  390458.0471720704 5954782.59950515 0  359533.8454135222 6048753.88242996 0  380149.979919221 5954782.59950515 0  349225.7781606728 6048753.88242996 0  339867.4956514095 6005339.817053361 0  333737.9460226952 6002130.523287664 0  336955.8140048417 6012008.440073739 0  377097.8989316926 6023232.32559834 0  371748.9790486701 6028016.629988787 0  338146.5171983215 5993298.164761053 0  355016.8390227688 6017610.913088997 0  393953.1528190996 6018968.416019509 0  335185.8133477239 5965142.63403323 0  328616.6041642396 5967263.80307608 0  380314.9487662361 5965460.362415641 0  354622.8993466098 6032976.142863722 0  328521.4725131759 6027215.026914048 0  334465.0783479523 6034070.534389696 0  328123.6212682287 6009699.206425843 0  381889.5169855529 5973936.741901617 0  359122.3484437474 6036790.002992895 0  386341.6533148278 5979963.279841923 0  400798.2159679119 6012477.871311778 0  388538.3765260249 5967461.292146791 0  340833.8784183678 5975728.708105717 0  355307.6239213505 5988552.151815021 0  362181.4274823388 5981261.937800813 0  353784.0322742948 5981044.538811012 0  358045.1698423899 5978741.391518688 0  328423.7350325213 6036912.015930048 0  366897.6876966125 6027277.723668203 0  347355.1745641421 5978532.307510624 0  376820.5060332146 5979033.270735624 0  349378.1778589479 6024378.632814493 0  327189.2282939323 6016451.253924556 0  338433.8773236172 6036753.902881841 0  350141.9760340559 5987605.90026687 0  363794.7083927878 5991713.491814731 0  350325.1285660182 6035273.515460094 0  382355.9358007369 5983507.499638396 0  327107.0747437811 59811
[...]
<PointData  Scalars="f_23565-1"> 
<DataArray  type="Float64"  Name="f_23565-1"  format="ascii">-8.9804667477500575e-24  -1.7701996472761674e-22  -5.5388404769227713e-18  -3.7933193646061043e-22  -5.2233670893123589e-12  2.4088579706463058e-17  3.6017186780769257e-17  1.7291093896767636e-17  -7.8946878548485981e-05  9.9162258432760892e-19  -1.6977920979621880e-11  -4.5692371406654876e-14  1.8364567502513074e-18  3.3938113305061325e-11  -3.0821648696694343e-19  1.0887596799598153e-16  -6.8380076208832303e-16  5.3995209373204401e-12  -2.0283868180100062e-08  2.1096969848392694e-06  1.6081281886753252e-10  1.1836452303927419e-18  5.6593216966549312e-19  -3.5001413522398503e-13  -1.6584886936791057e-17  3.0604629280749721e-06  -1.7333664352679457e-12  4.0013651243616812e-09  -8.4940269098765270e-14  2.0988943254077341e-16  4.6760926561333084e-12  2.0087177991376136e-17  1.8851039474130229e-17  -1.1274457427772814e-12  -3.0555362385439344e-14  1.2186062734968681e-13  6.1512478530040951e-07  1.2465346314419603e-08  8.8743360681858129e-03  3.5743293611725447e-10  4.2330134108517468e-06  -2.4433697698519732e-15  -1.0205082989422121e-20  -5.1066926241916087e-19  -9.5015466648984442e-15  7.8987175443322209e-20  3.9251634702550366e-22  5.6905066167985489e-12  -8.5932216636416522e-18  5.4952001870715341e-12  7.0762055604668357e-17  1.5031168438959365e-13  1.2175550023844903e-14  2.6032075514616717e-11  -4.5915819311096141e-08  -2.9721258961849925e-04  2.1117503554958780e-08  -9.8229235487088228e-17  1.9701312106288742e-20  -8.7774372477746620e-21  -7.3462275411480186e-18  5.3585231611567605e-17  2.0110549767967262e-18  6.6738683109491239e-18  2.8061629088325069e-13  2.0419923717206820e-09  -1.1519068938462776e-09  8.1543932051978329e-11  2.3896913683376076e-09  1.2448501854294817e-09  -5.6942642974982187e-15  5.2515210389349162e-11  3.2427802382526062e-10  3.7720702382332582e-16  3.0454909608009386e-12  2.9320578332283460e-11  -2.3459961668019957e-14  -7.2334251729932475e-20  4.2693996512459938e-13  -8.3924785875888511e-16  6.8768381069374167e-18  2.1005846957588171e-04  -7.6508411723683873e-13  5.3490029978503178e-08  -8.2058025252141298e-13  1.7185552602716370e-19  -2.6696500553104457e-18  7.3851073067640327e-16  -2.7636389257024554e-20  -3.6666363819776012e-13  1.6921182817942806e-17  7.8496787097839563e-14  -1.1136673414504514e-18  6.2944708818601578e-12  2.7504066355218175e-13  4.4701134578441179e-13  1.2890301567285061e-03  -1.7064410577602474e-15  9.3934655002994698e-19  2.2094524999447456e-16  1.6451294304946410e-09  5.5060715796057091e-06  9.7061749425002740e-07  -3.1747010010716776e-18  5.9730976376393038e-16  1.6380311966904900e-11  1.1115853734411919e-14  2.3595369387004488e-12  1.4589195359811475e-16  7.3945931627933492e-14  -3.7190746086531563e-15  -1.7778841737791469e-16  1.0365781466660249e-10  3.2436473520613631e-12  1.5300440151429517e-13  1.2720071193370576e-04  1.7701586065679692e-05  -1.3841411607149109e-18  5.0038477470049347e-10  -3.6073357017035241e-04  -9.5280478826557573e-13  9.4145757244494272e-04  3.3487244194347426e-06  -5.3416722714179523e-11  1.1181077059299001e-08  -3.2023190202231787e-18  -7.1770965524512094e-13  1.0357366764194323e-08  -1.0298424670266420e-15  2.3765559314579457e-21  1.9103209295792493e-13  3.9410381165721526e-08  7.7001385464631706e-17  1.9229345855601678e-13  -8.9344854455467964e-15  4.3176381035949451e-18  -3.6973656359008803e-16  6.0012429306330437e-16  7.7656345395888831e-09  9.3712198846760008e-10  1.6765504864558374e-11  -2.0928682024615851e-06  2.5176514617187124e-08  1.6069425144609012e-18  6.3219540146125036e-17  1.3196723762997855e-06  -1.3385014756614150e-09  -1.3619546318159922e-12  3.6070780819533694e-14  -2.2026526668664910e-15  2.4417652612508735e-11  4.0598777282715190e-08  1.1582807316832518e-22  4.4953746910422910e-05  -1.8680282329077136e-17  3.0760390581101849e-08  -4.4716633491257077e-13  -4.6104772044814348e-16  2.2674012212416504e-20  -6.6846043847863901e-14  -3.5699166028091956e-17  1.6599190856007196e-19  -1.1780611208817891e-16  -1.5017770105754742e-22  -7.6795620486257802e-13  2.8159769417431056e-17  4.0384614984420453e-21  6.0967690462136091e-18  -1.0227514959399645e-16  1.6055307811593031e-13  1.5138687581981916e-07  -1.2593984624777224e-15  -4.7581693092592286e-07  1.5718667657885788e-13  6.7629667083471633e-19  1.1362241419868452e-15  1.7954629486990882e-05  -6.3287249267596608e-20  -2.5300214423664520e-11  8.1783576119896996e-17  -8.3625684099661938e-13  1.2397059228101334e-14  -7.1880777432471249e-18  -5.1882964755838745e-11  -6.1625838514697024e-15  -4.2391490410396371e-15  -4.0812573168765164e-15  1.7330739933929427e-15  9.8211968602071669e-11  -1.0901298329851429e-04  4.7341275731428182e-21  -5.1606152356183867e-08  2.4548566780068306e-12  -2.6225051462013610e-17  2.1985310812355121e-07  1.7191364384965416e-01  -2.5340609183544598e-21  1.0489209523889029e-15  1.6465628704415470e-18  2.3758500349356644e-21  6.8271888210214101e-09  -2.1518155174104098e-11  -2.5280876275275967e-08  1.0320994898711177e-15  1.3734997261115847e-15  2.3676929094332779e-17  -1.3120781224767431e-17  1.0666390814369776e-19  -3.6478739640893742e-17  9.6812751468812607e-18  -6.2277054135816671e-21  -1.1505792069008781e-20  -1.5224796994958314e-16  -4.0143888710473607e-18  2.1319911713552793e-16  5.6091118968376188e-18  1.1702357201832129e-11  2.9238623782994659e-13  5.3165922680576661e-13  -7.6111747067647131e-11  2.3935483107544185e-11  5.7422569131346855e-12  -9.1207394273154126e-10  1.9724544531053798e-13  -2.9567056979141496e-18  -1.2483252382093412e-19  -4.7102632604204346e-13  -3.4586382792189878e-13  -3.8286354614139444e-18  -4.2761523574094314e-18  -8.6868272543094993e-16  1.1207427089973858e-09  -1.0774572142519657e-15  4.7564079108432397e-08  7.5799498944062694e-13  -1.1990457023222389e-12  3.3654191969852745e-15  2.3056210579538532e-08  1.1288637370966018e-08  -3.8009837172465887e-11  1.4108982349047443e-10  -8.1820332408885615e-20  -7.4400701936594885e-12  5.4043201018432802e-14  2.3897320596196103e-07  -4.7341610028610253e-12  -4.5902793843725655e-17  -5.0343969815730928e-18  7.4912550519194906e-11  1.3785140717461964e-05  3.4497774490526087e-15  6.9530978654469191e-07  1.3657297532360701e-17  -1.3514148938493247e-14  -9.0226842566630274e-16  1.6080260251604179e-04  2.4039066712848202e-11  1.0404166341844604e-10  1.9462468819368391e-08  -2.7827667259980896e-16  4.6458703620652653e-16  -1.0818727016260557e-13  -3.2038891943576831e-18  -2.4842713385260227e-17  5.9481189743716991e-10  9.9804115060837485e-07  -4.3190844015474184e-17  7.8630710650897928e-06  -1.4303534236497689e-15  1.4728013745463894e-10  5.9759466015724363e-07  5.8517824624594386e-03  1.7588408260442515e-10  -2.3070710379014182e-15  8.5643947769748605e-10  7.0705559212560456e-11  4.1167042901364093e-10  -5.7471254687229663e-11  7.2241598172394938e-08  -3.8041742715505433e-13  6.8041056716834089e-12  3.0710647530923088e-13  -8.5093743460240334e-10  1.2737294930025588e-06  -5.5021594721294918e-06  8.2749248136298970e-18  1.0057883244187494e-11  7.1978439901904034e-19  -2.8187358765070305e-15  -1.1186399669050756e-11  8.4123354762328500e-13  3.9297621575284509e-11  -1.4754984786275759e-19  -3.8074962706662039e-13  -1.1542562947034454e-13  1.8329683037226710e-05  1.2775493152020000e-15  9.8534381650386399e-20  2.1246698457181032e-18  9.3812652664840994e-08  7.7752485104347964e-16  2.7656086588834579e-15  3.6566119181390621e-19  -1.7354431977100581e-12  3.2449726394442415e-20  -5.7807586060637578e-20  -1.3450810122065057e-20  5.7572076555760076e-04  -1.3404349487340953e-16  1.8001134784030205e-05  9.8576959613248747e-17  -2.8404706423769806e-20  5.2554703234391487e-16  -3.7987410205198540e-14  -9.5148803162300115e-14  4.1382620763710883e-15  3.8801168437539440e-11  2.1235851639423457e-13  -2.2085485545603866e-15  -8.1178509512346168e-16  -2.6134998698093453e-14  1.5543999509911890e-07  -7.6662253208220570e-07  1.0144446825462885e-06  -1.0175868199776161e-16  8.6147583205678445e-12  1.1442183104202935e-14  -2.3092357626897041e-21  3.6601686291000613e-20  3.9874511107244060e-13  -1.6810914180461763e-13  2.2851369589383487e-13  -2.7230825343621881e-13  -4.3541919846703991e-16  -2.6922607121376872e-17  6.1897210005594012e-17  6.5044965065689698e-05  3.7183848901669596e-11  -7.3606435358289269e-15  2.9362835791936630e-09  6.2426579632474317e-05  6.7855906729374858e-05  4.2358457804347074e-04  2.6505198187427369e-03  -9.9214408242419884e-17  6.7761684417154528e-08  -8.4285978043798246e-13  3.5858372809750050e-14  -7.9230436433372135e-13  8.0310618715217542e-12  8.9267853569179686e-23  -1.9015049203497675e-20  1.7588451064997533e-08  1.5174050527100360e-14  1.7959232475552278e-14  2.0481129257324532e-07  6.9665015808192756e-16  8.7887006328872086e-10  -1.0951834219243770e-17  -2.4243480338047084e-11  8.8603406337204052e-10  1.3475831615517680e-17  -9.3106893997860472e-20  8.0211964510934626e-07  2.0037221902202991e-09  4.1670541933113091e-13  -1.1083794776330787e-13  2.1766279595522820e-13  -2.9233405033856826e-21  5.3342959400166583e-18  2.9238419838458371e-18  2.6075735102848733e-05  4.4838541812919167e-11  1.3219269480856029e-16  7.9204774980623371e-16  8.9493019961174278e-14  1.8405474120684784e-13  2.1324402915328746e-15  -6.4370314671999141e-16  3.1139028478093911e-09  4.7392101397124824e-09  1.3296263137545080e-12  3.3461825640102137e-19  -8.1317535930789070e-14  3.0793277439792612e-11  3.6808767117204926e-17  -6.1681232410140171e-14  -8.2556047909052059e-07  1.4783440474507950e-10  -2.8758679002865660e-13  2.4237934314267978e-15  -1.1361641724700648e-16  -9.1779577961171990e-21  5.8523749436466919e-14  2.3507876877746668e-07  9.6705462479136624e-12  1.8488035071679669e-14  -6.4316740493649516e-12  -2.7734245762484997e-13  -3.9750418828803370e-14  6.8560170768033103e-11  3.5126205320962326e-12  -7.9143555586379703e-17  -1.0653391805196764e-16  1.3240827664935877e-08  1.9355352433885950e-09  -3.0112213584542893e-10  -3.2501688747299001e-09  1.3398648688620061e-07  -7.4940223605280929e-11  2.3897600271519374e-10  -5.7180042208632026e-15  -5.4262174734079569e-15  4.8338702169241104e-07  2.6145105609393414e-19  2.8023925307088140e-06  5.6822842108987559e-01  -4.7373662615341062e-19  -2.2366967117464127e-15  1.6288385666199592e-08  1.3273372369796043e-12  7.4530025412729079e-07  -9.3906927760363899e-16  -2.6834961844809914e-18  5.3906396396205459e-18  5.1851262766477493e-18  8.0611850254071986e-17  2.5119691139069604e-11  7.2772161397065542e-10  6.2628894022454810e-13  1.0207801563056157e-12  6.1871669576431595e-18  -2.8543985856405416e-08  1.2554361476115096e-07  1.8002311203738118e-07  -8.5571381626950282e-12  1.8625560982563204e-14  3.9067312589720195e-12  1.9116390985420993e-07  1.1981168414654228e-08  -5.3875144390955051e-07  8.6235660289151768e-11  1.9017811253791559e-12  3.9624326421670063e-03  2.5966499515806565e-19  3.3595127288000169e-12  -2.4653536457006208e-11  5.8343023217195079e-10  4.7797710171477296e-15  2.3556287114401245e-13  5.5521397379988550e-18  -3.0559939760287941e-03  1.4164858160470502e-08  8.7742612108668629e-14  -1.7962555308121773e-09  6.0667952451071205e-12  -1.0429981394356108e-17  2.7521180753515829e-10  1.8457876022976451e-13  -3.4807294605025069e-08  8.2723042459137375e-16  3.4568104155082830e-16  -4.2223494641601972e-14  6.8093436233881913e-13  -2.0248733653307945e-19  3.1205659769308227e-13  -2.3523173234063566e-16  -1.4424831729431468e-10  4.3139838061597222e-11  8.4413901990643739e-09  -3.8684828307236890e-16  3.0327655824567487e-10  -1.0907758555427163e-12  3.8936558609176254e-20  3.1741989651583699e-03  -1.0087662991525180e-15  1.7051060628872576e-12  8.3996311186559474e-13  6.7711624412795327e-10  3.3879170202028650e-08  3.0819631196361803e-17  6.8744351097437131e-11  1.4430633750070826e-04  -4.1425847012901358e-15  6.4127067040111423e-12  1.9789531054029161e-13  -1.3059797733027478e-14  1.6295903733432484e-17  5.3354722246178437e-13  6.3857771913822548e-07  -3.0574320458700566e-03  6.1737651029350802e-12  3.0847052071318831e-12  -8.8961778502344955e-21  1.4540828336826897e-11  2.1727791125030784e-10  2.8582026624888928e-08  -2.5613159699962833e-16  -1.1004879013176196e-16  4.5707048394899603e-17  1.7567264271912551e-09  2.1457468351177482e-19  -3.5450060103525335e-19  5.7069124277762290e-19  -1.5374011183135105e-17  -4.4449180639885005e-10  6.8895745624518357e-08  -2.2276782098101202e-10  -9.1783604378476105e-17  5.8392158071076639e-09  6.3132242700334384e-14  -3.3163929197628818e-10  -8.7313080936697877e-16  5.4526188300305853e-07  3.5008262416525258e-08  -8.5724889113962431e-11  4.1675404652228888e-12  -9.1334951657389608e-12  5.3458297885022136e-11  2.8532153231132045e-06  1.8817087174073261e-05  -9.2869199991101494e-07  1.4755413158406686e-09  -6.1617232771745058e-16  2.0626959700740042e-05  4.8997664591752788e-18  -7.4831208342604142e-17  5.6331298898789386e-16  -8.5665851090320516e-17  5.0748327544304134e-17  7.6632510057323363e-16  5.5521002678667006e-21  6.9591077861785085e-09  1.8088084264997613e-16  7.1755839603941294e-19  3.1252293531462960e-18  8.4073952878025232e-15  2.3884055544629503e-14  1.1610733020585529e-10  -5.6440310315486249e-24  9.0678340738417062e-22  -2.8416027849882700e-16  2.9842493662496057e-23  1.2335366626656155e-07  -5.1924033741537227e-08  3.3093469497185193e-09  6.1946625556272897e-06  9.0080412762448502e-16  1.5952200335506637e-07  -3.9873950987095645e-20  1.3306342993824523e-09  -7.8504208577750739e-14  8.9317315165904009e-13  -3.2868556892478200e-12  -1.1121304086746965e-12  -1.5752688093823882e-09  -7.4235766070870776e-21  1.1018974318567466e-20  -1.9111440424660965e-18  -9.7420957747972348e-19  6.2546634892068719e-17  -2.4624110852285819e-14  2.0525413556119234e-09  1.1469638252379121e-11  2.8153310475491583e-18  3.3660116763755242e-10  4.6940889679767525e-11  1.8284527555562161e-11  -4.2606417495289137e-08  1.1892722896866774e-11  -3.2605144740457478e-17  2.2990461572932134e-16  4.7625406644579921e-17  7.1655599599685205e-14  6.3303643991823608e-14  3.5613901129310739e-16  1.0663581062156204e-17  3.8567746511649777e-15  4.1932713250877428e-15  1.0605997054830845e-14  -9.8949246495683936e-18  2.0758147206347848e-04  4.5141929039010893e-04  -2.8882737108728505e-11  9.8935497532090014e-21  1.4221382112952106e-17  -1.1937283543106928e-16  3.8729556265265207e-17  3.1459325758627011e-21  -9.0521938604626443e-17  -3.9071138537905535e-22  7.8147854539211212e-05  -1.4493670447739945e-04  2.8139747691330298e-15  -5.0863095393590021e-14  -8.4144396534785245e-13  -1.8754258866228218e-17  -6.9136258776406813e-19  -7.8361014029811004e-14  -9.9748336952533662e-09  1.6995201640415509e-09  2.0951766067002166e-07  7.2896126877674665e-12  9.5934579186134233e-08  8.9839146296182943e-06  4.9150554181419886e-06  6.4760210066578334e-13  3.5019409234876655e-14  -1.4102929369314766e-14  1.2957741148000492e-15  5.6590047247593540e-16  4.7107888061355409e-19  8.7624590295242885e-14  -7.0577501688967507e-18  -4.1367820088511823e-19  -3.1247613187339969e-14  1.0960350551848920e-16  1.2326803311639261e-15  -1.5761157410604730e-22  -6.4556637832927693e-20  9.6110084180379760e-13  -4.5336292317786237e-18  -3.5299132535388363e-12  5.2993376233458662e-15  -2.6703100248455127e-14  -3.2447137412723494e-16  6.3732620244082042e-09  5.9672289241998688e-12  -2.3034680876115927e-11  -1.6918542171880738e-13  1.3239894509696779e-18  3.1093374138442920e-19  -4.1177232911997028e-18  -9.0987314535958470e-21  -7.0471057789949484e-19  4.3275252988747146e-20  1.5008264826805719e-12  8.4940351110556652e-11  1.4441200588583310e-15  -6.3326202768301895e-15  -5.7193723877675342e-10  5.3103323933833882e-09  2.5285098112973109e-12  3.3134183301705550e-12  9.4725297425022354e-11  9.5039488769445387e-12  2.7270865595415953e-14  5.1799881094018647e-16  -3.0990748355419393e-17  -1.8374720465763349e-15  -1.0165397948455545e-14  5.9443194113605271e-16  6.8236779287429932e-17  1.3460881312242374e-05  -9.7482641827616803e-12  -6.6389735335108241e-18  4.9653942758808493e-07  1.8865429220971042e-14  -1.1483155223022412e-13  1.3049113274830988e-14  5.6408749175820927e-11  -9.8631561666851793e-05  3.9024071280794044e-22  -7.0879389687374027e-22  9.5557119291803715e-09  2.8634799239206144e-20  -2.8666252426434797e-17  1.7052506876532826e-06  8.9573210347869577e-04  1.7673776595122072e-04  -2.0042455470515550e-18  -5.7704186158298111e-16  5.2736811414619603e-04  4.8620153397196903e-10  5.5481578982041585e-18  -2.0339691646894615e-04  -6.2912047499726989e-17  -1.3035793772565137e-21  9.3565006404198484e-14  3.3258557490682008e-19  -2.4327825144710040e-17  1.6785232436388488e-11  5.6502407898594336e-17  1.0884939484601571e-11  -4.7274117068389522e-17  1.6530678921405675e-07  -5.7561779847086878e-12  2.2316065318653280e-04  1.6434261286229824e-10  -9.3361393341098582e-17  1.3708918598114646e-06  3.2339537531528259e-15  -7.6935428289025634e-13  1.3250200500497720e-17  3.1564343485646599e-13  -5.7210156363341448e-18  -1.1231900979152607e-19  3.8956816358630731e-11  2.7343325148955589e-11  6.5308048911298563e-18  9.6564114797992689e-11  -1.5182711408373078e-08  1.3309474178228245e-08  -1.6475644816118897e-07  9.7735965222540963e-17  -5.4529265353090140e-15  5.8063606116719480e-12  9.6998167900492946e-13  4.3050362199278548e-06  -1.3272427160511901e-16  -6.1142170806422248e-16  -3.8176427925316096e-17  -9.9405645645938762e-16  6.5577736848769060e-14  9.6228778141719267e-18  2.3360215149438026e-17  -1.1799836375116057e-03  7.2401865443950012e-05  1.1724731722840600e-07  1.3177000383491615e-07  8.6575956677552553e-08  -7.4581136147940725e-08  3.2140919756477866e-08  1.9723133426416427e-11  2.3237579949390685e-12  1.5173112901493794e-07  -6.7244668392157672e-20  -5.2691422567873687e-13  -3.9218213244535665e-16  3.1985836553001224e-09  -1.5606278555328568e-10  -9.5296220406377070e-10  -4.4808637336974449e-09  8.5241755101330617e-18  4.9309819132253194e-18  2.1866063419946844e-10  1.4970599779691588e-12  9.5224225444405763e-14  -1.7560064329332680e-18  4.1102260936141808e-16  1.1772011139358573e-09  1.1725719841963513e-09  6.7299903258363413e-18  -2.5146480411441663e-19  -1.4327169696210481e-15  -7.7905806315108433e-12  2.2464975632519290e-11  1.0799837678222224e-11  -2.5030827534472040e-12  6.9694418497773716e-11  -4.2185809841870202e-12  1.7296172246488332e-07  -1.4548485967150325e-20  3.4562122559591596e-18  2.4917742051434294e-17  1.2011315681302556e-12  7.9318273644934847e-14  -2.6228619124548316e-18  2.8934640359376317e-20  -2.6127412586670791e-21  -3.0418265726444183e-21  -4.7113427308531191e-12  7.8436891247133997e-12  -6.6854056975501359e-14  1.1305114994154297e-09  5.6353899956740372e-09  1.2181596290140597e-09  -7.1323938809858631e-16  1.1668012600202616e-09  -1.2339850236693696e-16  1.6063788693413354e-08  -6.1641799060430543e-19  1.8922543507132426e-15  -7.3914526014132118e-17  5.2233149242917924e-14  3.6865288411744914e-15  6.8887612080594345e-14  3.8814125841031426e-13  3.1069686949906151e-13  5.6390127279684582e-13  4.9894058904182622e-13  -3.3202267542448656e-12  1.6337559225175649e-19  -6.7184173228015896e-23  1.8370241681930345e-16  3.6864540052474877e-16  3.7943811820431745e-20  -7.0639864147264472e-17  -9.4348163380707784e-20  2.3185086102155043e-18  -2.4756467199493862e-17  8.3881802750203595e-17  -1.4366632395577547e-16  -3.1050322026711231e-17  -7.5935915353802689e-17  1.4663360850235460e-21  -1.6909010283373511e-17  3.7250758951939308e-21  1.7720081242698554e-21  -6.1784434445016381e-19  1.1565144582780578e-03  -5.1430846149694410e-09  -1.0657105495527992e-10  2.0765922471158543e-11  8.0582274720219401e-19  -2.2720248138852697e-17  -3.5081710520084767e-17  3.7969017766500837e-21  -2.5503948225591553e-08  9.9579040232912116e-14  7.8663639050587304e-19  2.3605619455869271e-07  3.5462884799102524e-19  2.2670499954143322e-10  -3.1238774855167190e-14  1.1128265971190771e-08  6.08466