<?xml version="1.0"?>
<VTKFile type="UnstructuredGrid"  version="0.1"  >
<UnstructuredGrid>
<Piece  NumberOfPoints="3002" NumberOfCells="5870">
<Points>
<DataArray  type="Float64"  NumberOfComponents="3"  format="ascii">323455.6100285493 6048753.88242996 0  323455.6100285493 5954782.59950515 0  405920.1480513444 5954782.59950515 0  405920.1480513444 6048753.88242996 0  405920.1480513444 6001768.240967555 0  323455.6100285493 6001768.240967555 0  364687.8790399469 5954782.59950515 0  364687.8790399469 6048753.88242996 0  364687.8790399469 5996367.117560402 0  323455.6100285493 6025261.061698757 0  382226.6271443229 6022560.499995181 0  405920.1480513444 5978275.420236353 0  323455.6100285493 5978275.420236353 0  353897.8957397301 6022560.499995181 0  344071.7445342481 5954782.59950515 0  385304.0135456456 5954782.59950515 0  405920.1480513444 6025261.061698757 0  354379.8117870975 5975574.858532775 0  381582.8168806895 5978840.396198289 0  384950.2598624413 6001768.240967555 0  344643.0480768835 6003429.02033719 0  344071.7445342481 6048753.88242996 0  385304.0135456456 6048753.88242996 0  339717.0321562298 5986078.187627405 0  337515.036058786 5969821.016310448 0  368062.2614420265 6013076.224998265 0  368062.2614420265 6032044.774992097 0  393987.6142659165 5988729.699941677 0  405920.1480513444 6013514.651333156 0  392856.2821527076 6034589.119828064 0  393514.9611654527 5968369.338068204 0  339399.8087404341 6032061.482581838 0  323455.6100285493 6013514.651333156 0  374995.9462927963 5965504.865595459 0  354379.8117870975 6037976.901948514 0  338123.9088969378 6017031.529131207 0  367397.3120126425 5982072.559192053 0  351882.5752379905 5991998.990225234 0  376945.425450199 5991232.708824487 0  392265.0061656896 6013300.936254065 0  357029.7426706699 6006608.947964352 0  380093.6207558212 6036880.127749795 0  323455.6100285493 5966529.009870751 0  405920.1480513444 6037007.472064359 0  405920.1480513444 5966529.009870751 0  323455.6100285493 6037007.472064359 0  333763.6772813987 6048753.88242996 0  405920.1480513444 5990021.830601954 0  323455.6100285493 5990021.830601954 0  362879.3643765316 5966837.319094267 0  348367.6438548031 5965604.161682394 0  334493.1989038612 5996935.948935225 0  395068.5043068817 6023875.372615605 0  348216.0324377587 6013504.844950221 0  379305.9090074943 6011603.390019651 0  372523.5158233726 6003480.000732267 0  395435.2039568929 5999384.346358113 0  395612.080798495 5954782.59950515 0  333763.6772813987 5954782.59950515 0  395612.080798495 6048753.88242996 0  374995.9462927963 6048753.88242996 0  374995.9462927963 5954782.59950515 0  354379.8117870975 6048753.88242996 0  354379.8117870975 5954782.59950515 0  335074.5981535012 6007206.680367459 0  391925.2695590468 5978591.908877409 0  371969.1707190623 6022560.499995181 0  383872.162544519 5969415.106147043 0  358038.7139835292 5984533.09712744 0  369699.869182786 5973102.2359358 0  369841.9126663716 6041099.453006387 0  343176.7440329155 5994428.220622956 0  362933.5332293962 6024385.235173292 0  330640.1760208776 5984148.625419154 0  348684.7494355051 5983110.856817525 0  399094.9690929834 6007537.420809742 0  345447.6324516311 5974162.84917082 0  332859.7749513451 6039150.972778062 0  344517.044630671 6024057.945416138 0  332973.1214415312 6025037.914505113 0  341428.0126373461 6040493.820728126 0  385874.264691618 5992757.40885039 0  350337.3662538711 6030387.535304286 0  359887.2373602368 6016186.250094838 0  377097.8989316926 6029115.217702097 0  338917.7109078235 5961484.016839475 0  329495.5261590715 5972402.215053552 0  336644.7280634616 5978216.610794215 0  330688.6715098422 5962480.256438018 0  359899.8039476132 6031963.415584587 0  399746.255941904 6030426.523907755 0  385511.6875144855 6030368.508996127 0  387377.735783329 6040763.821024337 0  398832.192399829 5974431.100387635 0  387992.9498994246 5962432.032572681 0  405920.1480513444 5984148.625419153 0  364925.7641745284 6005782.953640081 0  361769.877068089 6041226.651684469 0  398452.9199001931 6040850.732439541 0  398946.6205243983 5962252.502309519 0  362305.5577564609 5975984.89789681 0  356822.8065216601 5998470.186307689 0  386900.7115926162 5984820.732438302 0  329528.0119279922 6032067.230024892 0  331139.6939744562 6013813.572928222 0  398457.5876798834 5982541.698799337 0  405920.1480513444 6019387.856515957 0  398685.5166750694 6017257.578706384 0  348587.9424884976 6042755.309150081 0  369841.9126663716 5960143.732550304 0  380149.979919221 5960143.732550304 0  359533.8454135222 5960172.384722514 0  377147.8814772839 5972649.581024994 0  341756.3455763521 6010124.092444684 0  355615.8176864882 5966311.193813809 0  369144.4338274571 5989807.770003954 0  375185.9047422862 5983510.422041401 0  323455.6100285493 6007641.446150355 0  391856.7960121195 6005888.565703365 0  371978.0245217044 5996361.134308098 0  405920.1480513444 5995895.035784755 0  378877.1880032702 5998073.745937059 0  359056.6617417652 5991643.489540118 0  399278.8743430426 5993436.466134224 0  386116.8775939071 6009922.097099247 0  323455.6100285493 6019387.856515957 0  388994.7833819839 6019826.789191471 0  348897.6207366391 5998116.079250046 0  345456.3301153719 6035064.814295612 0  323455.6100285493 6042880.677247159 0  334124.3013408988 5990072.953472659 0  377097.8989316926 6018059.782440464 0  323455.6100285493 5995895.035784755 0  342871.8474798963 5980154.238874755 0  373596.9793292385 6035659.183886081 0  380149.979919221 6048753.88242996 0  376327.9292813152 6042294.581731233 0  329163.3548105369 6004704.843558955 0  350303.9432136903 6007093.032074522 0  383982.6552804571 6015912.664375832 0  345515.490569988 5988567.439252969 0  379019.812877927 6004678.052169549 0  365541.9137639466 6018750.691894444 0  349225.7781606728 5954782.59950515 0  352493.3399767278 5960815.406895458 0  363683.8130458911 5986976.225872464 0  386666.791301207 5975084.583584332 0  368937.6553346639 5966171.092344863 0  400003.9882214358 5968352.273777306 0  328776.0063842635 5992958.433193355 0  339958.4428758043 5999572.344589042 0  354577.7732363954 6012555.454074449 0  328609.6436549741 6048753.88242996 0  382053.0280278458 5988228.496807038 0  330708.6817934912 5978212.973348036 0  372084.7734679543 5978495.086505585 0  358568.2738174705 5971419.415228934 0  328931.2672829705 5998832.905089681 0  323455.6100285493 6031134.266881558 0  405920.1480513444 5972402.215053552 0  405920.1480513444 6031134.266881558 0  323455.6100285493 5972402.215053552 0  405920.1480513444 5960655.804687951 0  323455.6100285493 5960655.804687951 0  405920.1480513444 6007641.446150355 0  323455.6100285493 5984148.625419153 0  405920.1480513444 6042880.677247159 0  346648.7613474604 5960023.05127712 0  342415.3891593561 5966358.988213831 0  350507.6510228226 5971111.740321856 0  391773.9667214506 5994456.117700323 0  338875.8905424621 6026088.827345025 0  361429.1735454847 6010511.262533597 0  389395.7028803263 6025805.543023561 0  392895.6464692951 6043315.288173481 0  332846.8296575367 6019296.633131165 0  373337.4404588729 6009693.515402478 0  336544.3064612215 6043648.151399015 0  348610.2411382072 6019567.839754772 0  381943.4597763228 6042183.394750732 0  355630.0631288611 6028071.82801846 0  363941.5238882306 6035967.852698964 0  328179.67203552 6022271.326978176 0  401066.2857736665 5998807.415073814 0  344387.1099621175 6029612.545574771 0  393435.2235156003 5960233.556458537 0  400735.9970493424 6022675.638064924 0  393708.5772019727 6029179.837160029 0  400609.0696943338 5987857.851798974 0  361753.6614662939 6001152.171757337 0  400766.1144249197 6048753.88242996 0  353363.0524357285 6002630.165620538 0  343248.328463803 6018790.640008039 0  356419.8105951758 6043365.392189237 0  390234.385899412 6000759.497967276 0  368336.1168551637 6000220.532318851 0  328609.6436549741 5954782.59950515 0  387520.8298169724 6035372.992507171 0  400588.0280660195 6035823.299583429 0  329021.6598427091 6043194.252697862 0  393371.710206733 5983576.325812268 0  393638.9721728675 5973623.513063556 0  371727.9212466564 6017113.044457142 0  364687.2762977295 5959941.212693035 0  374995.9462927962 5960346.83186599 0  369841.9126663716 5954782.59950515 0  400766.1144249197 5954782.59950515 0  338917.7109078234 5954782.59950515 0  369841.9126663716 6048753.88242996 0  359533.8454135222 5954782.59950515 0  390458.0471720704 6048753.88242996 0  338917.7109078234 6048753.88242996 0  390458.0471720704 5954782.59950515 0  359533.8454135222 6048753.88242996 0  380149.979919221 5954782.59950515 0  349225.7781606728 6048753.88242996 0  339867.4956514095 6005339.817053361 0  333737.9460226952 6002130.523287664 0  336955.8140048417 6012008.440073739 0  377097.8989316926 6023232.32559834 0  371748.9790486701 6028016.629988787 0  338146.5171983215 5993298.164761053 0  355016.8390227688 6017610.913088997 0  393953.1528190996 6018968.416019509 0  335185.8133477239 5965142.63403323 0  328616.6041642396 5967263.80307608 0  380314.9487662361 5965460.362415641 0  354622.8993466098 6032976.142863722 0  328521.4725131759 6027215.026914048 0  334465.0783479523 6034070.534389696 0  328123.6212682287 6009699.206425843 0  381889.5169855529 5973936.741901617 0  359122.3484437474 6036790.002992895 0  386341.6533148278 5979963.279841923 0  400798.2159679119 6012477.871311778 0  388538.3765260249 5967461.292146791 0  340833.8784183678 5975728.708105717 0  355307.6239213505 5988552.151815021 0  362181.4274823388 5981261.937800813 0  353784.0322742948 5981044.538811012 0  358045.1698423899 5978741.391518688 0  328423.7350325213 6036912.015930048 0  366897.6876966125 6027277.723668203 0  347355.1745641421 5978532.307510624 0  376820.5060332146 5979033.270735624 0  349378.1778589479 6024378.632814493 0  327189.2282939323 6016451.253924556 0  338433.8773236172 6036753.902881841 0  350141.9760340559 5987605.90026687 0  363794.7083927878 5991713.491814731 0  350325.1285660182 6035273.515460094 0  382355.9358007369 5983507.499638396 0  327107.0747437811 59811
[...]
<PointData  Scalars="f_58-1"> 
<DataArray  type="Float64"  Name="f_58-1"  format="ascii">6.1844420280553400e-24  -2.3357283382141299e-23  1.0117564734247319e-19  -2.6425858191839184e-22  2.6532641588571765e-12  -1.0856991963267956e-17  -1.6998496982442582e-17  1.0000694450907645e-18  -3.0708719792563279e-05  -6.9537012243048466e-19  -5.2289340521246347e-12  2.5316245541753834e-14  -1.2914633004464803e-19  1.5977614339683950e-10  7.1332311170119447e-21  -5.1700533178906117e-17  -2.1438598228338575e-17  -1.0103499866296833e-13  3.1011638379047347e-08  -4.1356646132224468e-07  -1.2020394651290218e-10  8.9401565678791214e-20  1.1287726861922862e-19  5.5133671586974767e-14  -6.4096647846136100e-18  2.9153069584063898e-06  1.7637657805636831e-12  -1.6778634254712120e-09  3.7846177574465587e-14  -6.3327536965704864e-17  7.4881670450475152e-14  -1.6900821608426830e-17  -1.3427109953401672e-17  7.8973934418056422e-13  1.2010068093094145e-14  -1.6411314926962325e-14  1.4457431865588972e-07  8.6627635434210697e-09  4.6472438443459626e-03  -1.7845631833197272e-11  1.3361759131663383e-07  -4.7396991925188094e-15  1.1278957517284676e-21  -1.8111387601632682e-20  -8.2553201555852092e-17  -1.7527267974757604e-20  1.5665631939032248e-23  -2.3142454391902993e-13  3.4427930393126492e-19  1.6293846091309823e-12  -3.8856550924555960e-17  -2.4212970853087578e-14  -1.6831365533731533e-15  5.0055405288709676e-11  -8.8632970297179161e-09  3.8172111566645258e-05  -9.2088613828120035e-10  -6.2684487119787080e-18  1.1465385629561012e-21  2.8962614340027998e-21  4.0151169737485384e-19  7.0540930961847228e-18  -5.9593854071724891e-19  -1.2610987559445665e-18  1.6304381516247309e-13  -1.1222709481291574e-10  -1.2045824194246431e-10  3.5578621862617914e-12  -1.1616607897339043e-10  6.4947097298565735e-10  -3.3061140259316837e-16  1.5260443606589812e-10  4.5749873080071352e-10  -3.1554881539996102e-17  1.4004633459959811e-11  9.9392667851586787e-12  3.7752789198292930e-14  -1.4794559407528671e-20  1.2695789911179065e-13  1.9371293637008002e-16  1.2074398601707275e-19  1.0226128724244499e-04  4.6967262037144339e-13  4.1113808735081938e-08  1.0298828668825496e-12  -9.1445980536753849e-20  4.5496507524027705e-19  -2.6802781734546781e-16  -2.9011114948997019e-21  5.4334398428399677e-13  9.0504524302818897e-18  -6.0311405179430468e-14  -1.0294454004332786e-19  -1.8580533882426459e-13  3.1244793155434461e-14  -6.3842015042596033e-14  5.5085290183005519e-04  1.5514420329856266e-16  -2.5762287934938815e-19  -1.3557700259228308e-17  5.0826679105702424e-10  2.4026393644886666e-06  -7.3413299118278962e-08  6.7204090625100349e-19  -1.0550262995822575e-15  7.2853844458607900e-11  4.7201509969602174e-16  8.6817822962191333e-14  9.7609404520828288e-18  1.4020081831500695e-15  1.4815302243021303e-16  -2.6151441889783793e-16  3.4234164234693866e-10  -3.0086638774264871e-12  3.0114125979945634e-14  5.9384275955982673e-05  7.8382819369386443e-06  2.1438189950896190e-17  -2.2465254828398984e-10  -2.7792473863040724e-03  4.7518676072580075e-13  -5.6501597284026152e-05  1.2200443512814456e-06  -3.7696875546081527e-11  2.3234197330355487e-08  2.3191226400249963e-18  -5.4406837151642911e-13  -2.7447490667822855e-09  -4.6159886416903730e-17  -6.6616063769702348e-22  -4.7319759854644253e-15  1.6602043750913590e-08  -1.2702793832803257e-17  -2.3217049887621665e-15  -2.8518493009262250e-15  -1.4021682260984916e-18  2.9748284648736180e-17  -9.7024309171938742e-16  6.3340919708814435e-09  5.2586278157756398e-10  -5.7453250311904441e-12  1.3376164544393163e-06  2.6111720491847564e-08  -4.8203296105735013e-20  -2.0962770818953921e-18  -2.3504374184262513e-07  1.1362411536271443e-09  5.5060067700507488e-13  -6.6582145054249508e-16  1.6940599401987982e-16  -7.8036862585665232e-12  -3.2696211384452485e-09  -1.2723343244672819e-23  8.1452210239765828e-05  1.3752122628006032e-18  -5.3519449340430693e-09  -9.7592950910350864e-15  -1.0903206407795111e-16  -5.3284620601925899e-22  2.8272643424626445e-14  -1.4198108040409715e-18  -2.8270500743953449e-20  -4.8387174560476812e-18  7.4445540863311800e-23  1.8996723418516843e-13  -1.6003297073295842e-18  -1.2852155655938483e-21  -1.8836671746735145e-18  -3.6249793360054601e-18  -7.2460409232261026e-16  -4.8279335448349689e-08  1.0826036512585668e-16  6.2166393344407062e-07  6.6479854286784171e-14  -2.9940915914812959e-19  -2.1679192293672835e-16  5.6370784169663810e-06  -2.4738079516864440e-21  2.0468905626141201e-11  8.5237109045560284e-18  6.9563638629355569e-12  -2.0713577333488193e-15  7.0312982234001929e-18  3.6287031078614389e-11  -1.8449486342402256e-15  -3.3085509228740658e-17  6.4047053242035306e-17  -1.0952374468815024e-16  4.9339300549911698e-11  3.3231384296882010e-05  -7.6251545340262076e-22  -7.0091144221479669e-08  -5.0078800812003574e-13  -8.2412746452167328e-18  1.6921032790760317e-07  8.4716272590568478e-02  -2.5065724705930163e-23  -4.7948243540121094e-19  2.9579382204413269e-20  -1.3438600037352230e-22  6.2030654994013003e-09  9.7194994965572129e-12  4.2991878061553202e-09  -2.5703943072975396e-16  7.9067965182578822e-16  -9.3237734529984727e-18  -5.1449453824388667e-19  -5.6060966924464134e-21  -1.5138938604843215e-18  2.5198394915442949e-18  3.3588582906923043e-20  -2.5265426833523022e-21  -1.1744623422224448e-17  3.2478134777977783e-19  3.7247325646339793e-17  6.1815961521993600e-19  -5.9634787822800663e-12  -5.5932197026158631e-14  2.5683247297166246e-13  -6.4713329913258492e-11  1.9895157207724133e-12  -4.7175210491165881e-13  2.1897847129711136e-09  8.4923777719653202e-13  -2.1567799576509218e-19  -3.8592041409915841e-20  7.4329674420481091e-13  3.9276576248848837e-13  1.4451303051463550e-18  3.4339449306242866e-19  5.3771228855710921e-16  -3.8460611626404645e-11  4.9517751313694999e-15  -1.8823898550425907e-09  1.4501380247998415e-12  8.8035538802539808e-13  -3.6057482858090133e-16  1.3231544767395642e-08  5.0724879072252678e-09  1.6159404849379856e-11  2.8944722311219529e-10  1.4811026341592631e-20  5.4649530466363163e-11  6.0292377825359001e-13  7.3885897196015800e-08  1.6689048650484232e-12  1.8319182869737547e-17  -6.6259032365936046e-19  4.0045003389838754e-10  1.0493196346288319e-06  2.9159146871208779e-16  1.8367498536563100e-06  -9.4329046059353762e-19  5.0464753602819270e-16  5.5338026054388714e-17  -1.7248591987728083e-05  3.0363920075301993e-11  3.2129471035768771e-11  5.7512535738191102e-09  -3.6948055783262167e-18  -1.8196757499404992e-17  8.9247082252829106e-14  -9.7541305406795024e-19  -7.2711258161235312e-18  5.5291147398291874e-10  3.2776441893190608e-07  8.1153278270861120e-18  -3.5289705624320535e-06  3.2324940311050764e-15  -2.2963270327479744e-10  -4.6292991681302941e-08  2.7475143802943814e-03  -4.3652798642321357e-11  1.1422385871667931e-16  3.6328870129012614e-10  -1.1724984231510670e-12  -2.1537472718582637e-11  5.5495244138338270e-11  2.7922071291034937e-07  -2.9975285263110430e-13  -3.3240096137552242e-12  5.6411471213899366e-12  -2.8452397008606251e-09  1.1813022556372886e-06  -1.7262784208519664e-06  -1.1655679142520041e-18  1.0170878993173820e-11  2.7207214153970991e-20  -6.6331825941556078e-17  2.5366206450510128e-10  -1.9234016453810234e-14  -4.6971424602432184e-13  1.2901760396009988e-19  -1.3110570715688845e-12  -8.8751696469114664e-14  7.3076899538671134e-05  -7.1147465051507564e-16  -1.5708831680177883e-21  -3.1009056991283972e-19  -1.1253111943659512e-08  -1.0060138767062711e-16  -2.5321005607621621e-15  -1.6573043630095981e-19  1.7437826944151926e-12  -1.3538277610730116e-20  -2.5343097311268959e-20  -3.1118240852246569e-21  -8.6120370262813962e-05  -2.1711146283343867e-18  -3.5597618964453145e-06  5.3613452256446221e-18  -7.9739458503020194e-22  1.1384676240513189e-16  1.2431476937994887e-15  6.4406126972928866e-14  -1.0795391865947976e-15  1.4336199356827721e-10  2.7539352018591436e-15  -2.7661846858274327e-17  -2.6405762080587949e-17  5.8522388531577593e-14  9.8611124631864432e-08  2.3371246481659355e-06  -1.4483664083039020e-06  -9.9984146365962887e-19  6.5110801252748148e-12  4.4786412073485725e-16  -5.4806471750211317e-23  -1.0745269915653195e-20  -4.3220355355440122e-15  4.8919930986665011e-13  -1.5799416960046395e-14  1.8130517063732836e-13  -2.6044577887500743e-17  -5.3690069754768071e-17  8.2256037544500904e-18  -1.1714801114366671e-05  1.2451465464435608e-12  -1.9890736298618049e-15  -9.8036540089030662e-11  3.5304885531787024e-05  -7.0782334371144540e-06  -3.2369974147712631e-05  8.0568589401714189e-04  1.6851673499372240e-17  -4.7026452134302006e-09  -5.2886078937888672e-13  4.2876889330129354e-14  -1.0330850212399558e-13  1.4364813776742888e-11  -3.4195294308822897e-23  4.2367684116245996e-21  1.1192877794998840e-08  1.4407865346816999e-15  -8.9886629591702531e-15  9.6132577197042289e-08  5.5198707442762503e-17  8.9659474690779049e-10  1.1018244151145825e-17  3.5505138727600172e-10  -7.5012429601373251e-11  -1.9317590324489775e-18  2.4347345281816005e-20  2.8738784514976031e-06  3.6231610517579491e-09  -5.7998373869279623e-15  3.7163251669867553e-14  1.0370079309655112e-14  7.2968457382444687e-23  4.2384281483662064e-19  -5.7131418885903110e-18  5.4415925792348511e-07  -1.9236433031951398e-12  -1.0860991382185637e-18  -4.8927542313378127e-17  2.8493920715839555e-14  -2.2826075510933820e-15  1.4199839195459122e-16  8.7904060638121140e-17  -3.5051582876548342e-10  7.1023368173229714e-09  3.8900488948822756e-13  -1.1583999773266083e-18  -5.3164676096999795e-15  2.1675080853758132e-11  3.4394628166305356e-19  1.4603162676630536e-14  -4.2331667981806720e-07  7.0684251907389925e-11  -4.9665045020569839e-14  9.7651850036225781e-17  6.1688988950225847e-17  1.7107614982588959e-21  -1.4622001388403555e-15  -1.9994855374161404e-07  3.4467850910058355e-12  1.4506605448396596e-14  1.1143208956575655e-11  2.1997781851116010e-13  -1.3213141482854670e-14  -6.5020983660091088e-12  8.0486940632043710e-12  -6.2455060859248157e-18  -6.5073124833709580e-15  6.5346922505927086e-09  8.6491723661623982e-10  2.2835832346036574e-10  6.9011981259688369e-09  1.9320430943702761e-08  -1.4260958331293850e-11  2.2523685158196594e-11  1.3466727970007935e-16  9.7263394376500852e-17  -6.2505376182552319e-08  1.0955435613157835e-21  9.4647266222881085e-06  2.1243269003143997e-01  -2.1993688533344094e-20  -1.5534911741528879e-17  -2.3578584033377154e-09  -6.5588627201812720e-13  -1.5494644867970410e-07  1.9639126810210974e-16  -1.0318672954650941e-18  2.3925912600139505e-19  4.6075371621180758e-19  -4.9741680249087279e-18  -4.4575312748394339e-13  1.0850325716583431e-11  3.8921879117710829e-14  3.3529233878658005e-13  -2.0981564087170996e-18  -3.3997545904133446e-09  8.1358972763830064e-08  -9.0796544730227437e-08  6.0571448026830194e-12  -1.9360021488173834e-15  1.1462240679218911e-12  2.4860043251648896e-08  2.7863970495785752e-09  1.7102698838519953e-07  1.2789339097997615e-11  -2.7776934446011084e-13  1.2655645176463145e-04  -2.8450269746542294e-20  -2.0773243207543571e-13  3.6501823777824993e-12  5.8667429865789866e-10  -2.2488443357857264e-16  -2.3681990454862658e-14  9.6353006711256830e-19  -8.8295254686331624e-04  -3.5031026813936095e-09  -6.2745723112811276e-17  -8.0719603775153502e-10  5.2428193386688630e-13  -7.9831039099327228e-18  -1.0636796202761021e-11  1.0507215894104540e-14  1.6219626524731264e-07  -5.3400442340632209e-17  -9.8500889231397029e-17  1.5146489184004648e-14  -1.5638432954456942e-13  4.0831837690987815e-20  6.7973408514770633e-14  -6.0256413766538902e-18  1.3760928639839310e-10  1.1828888222504474e-11  8.3732396332258850e-09  -2.5210292805129550e-16  8.3645420151442278e-11  -1.4891088119335604e-12  -2.0065685203271619e-20  1.1954176947865452e-03  -4.3740460695513035e-17  3.1857943928122750e-14  -4.4414826248187145e-14  -2.5391572891026491e-10  9.7580457798598711e-09  3.4418065433302490e-18  -1.2561921799562473e-12  3.9914477390316986e-06  6.0370572370267888e-16  -1.0085050023126844e-12  2.8517873414700062e-16  1.5043768338304608e-15  -1.8395505904035765e-17  1.8037483181676762e-14  -1.0606564060325570e-07  5.7875526963027763e-03  -3.0549389291293010e-13  -1.5060270806214343e-13  1.9876659620040048e-21  -6.5558917195934068e-13  9.9029292533737306e-11  -1.8319509349837265e-09  9.7675014204115671e-17  4.6123914886716944e-17  -9.2329153947596757e-18  8.8623492869832934e-10  1.9053505478977230e-19  1.3057235765085107e-19  -1.2315701209541672e-19  2.3937817448592843e-19  1.3282424873013070e-09  4.7666909810793880e-08  1.3912418503310803e-09  5.0000743444587916e-17  1.1055673837258134e-09  1.0364839046775369e-14  -3.1504199003413201e-11  5.6083368907279864e-16  -7.4791117163748633e-08  -7.2448397969781325e-10  4.5523715930315528e-11  1.0020364062299699e-12  -2.3148082525734785e-12  -8.1104261793390288e-12  -9.7041997379796328e-05  -8.2539322544414221e-07  -4.2777234976434583e-07  9.7447233441390925e-10  -3.0250700102903825e-17  -5.2515923470519605e-06  3.1472073725846872e-19  1.6776766853605785e-17  -1.2800003930757310e-16  6.8125735383262710e-18  -6.9067081345547138e-18  -1.7083764317299572e-17  -8.6216633629213321e-22  -1.3073019853077195e-09  -1.0560605306168560e-17  8.0475959469899638e-20  1.7877347132395129e-18  2.8680937749087415e-16  -3.9436888264511164e-16  5.6043281942470599e-11  -7.3727528221108594e-23  2.5180215360431714e-22  1.8997263048086518e-17  -1.6815745836864543e-23  -1.4799940090402835e-08  -1.5285661819356066e-08  -3.8646977737989338e-08  3.3840630226513140e-06  6.2105961016543591e-18  1.5782374470067380e-07  -1.6150771171866638e-20  -2.2922380454223037e-10  3.1865422164383818e-14  1.1365105844922385e-12  9.4865236398025198e-13  5.1635282136357047e-13  1.8848969450533444e-09  -1.4197796028934769e-23  -1.2493369975003233e-20  8.0654600063491052e-19  -8.7031828886491889e-21  -1.2838853909917278e-17  1.5779545250185723e-15  1.0168354489332366e-09  -5.3869914011395972e-13  7.4782423665519799e-20  1.9300721114835493e-10  -4.6484539501885284e-12  -2.3494102501220462e-12  -5.5232044059133602e-08  -1.8062584595375340e-13  -2.3226913325397318e-18  8.2721696384387564e-17  2.8747379354831393e-18  -5.5436678104040130e-16  3.1468274214397023e-15  -2.7317233881872027e-17  5.2180962309054360e-19  -7.6668233614300851e-16  3.4260824084241541e-14  3.1244012641972009e-15  2.7626471241083073e-19  -9.9749609845765788e-04  1.4156130944646624e-04  -7.7007568562758958e-12  -2.1150427724750848e-20  -3.5627468524472567e-18  4.3150758125304286e-17  -2.0303165174054420e-18  -9.1993967688192479e-22  4.2869431232800513e-17  1.6195121967153597e-21  1.0699880600445089e-04  1.4093064973818826e-05  -6.9970220319586072e-16  1.6588717197980424e-14  4.8555316884155411e-13  1.4466144212583470e-17  1.3085500339819144e-18  7.9549703311986393e-14  -3.8858594910623581e-09  -1.3919534355155571e-10  -1.0996339898951423e-07  1.7972854730803127e-13  1.2170254497298037e-07  -2.2262329783879576e-06  -6.9579611519098764e-06  -1.5253053665052118e-14  -9.5610384498916073e-15  1.2116983561713841e-15  -3.2026834348769160e-16  1.4253441767543790e-18  -1.0843903334729187e-19  -1.3064346724928874e-15  1.4718808625150818e-18  1.6948515155999862e-20  7.3725764712592946e-16  3.0095614985380274e-18  2.7130669535641496e-17  -1.1047924626413235e-21  3.0236351206664533e-21  3.9004900792883684e-13  2.0611079184185548e-19  9.4757011237938151e-13  1.8150984576001386e-16  -2.2417148740647957e-15  -2.6265253446729538e-17  -2.2877351244315543e-09  -3.0079537061193337e-13  -2.3935347652215035e-12  2.0917609823708792e-13  -1.9481388764743238e-19  6.0491905666153123e-20  3.6020806146739902e-19  -7.3752294247590425e-23  4.7532756453787136e-22  2.3617462990443049e-21  2.9388285087290818e-13  -4.1385953108405071e-12  5.7404519927091582e-17  -1.2385786869950130e-15  4.5065219870780923e-10  2.8677759956559193e-09  -7.5218427273873605e-14  -5.1942126278838090e-14  -4.6580039924419680e-12  9.8056577130854839e-12  5.4614626708570960e-13  3.1052599262850331e-18  2.7127628938912940e-18  1.7506019847216959e-16  2.9583965283848396e-15  -2.6018975616270168e-16  1.3095821955940500e-17  -1.2335788252994853e-06  7.7125276717996539e-12  -7.4907137809729586e-17  3.0061928074410567e-07  1.0539452047218788e-14  4.7439476874867480e-13  -7.1326284609960550e-16  -7.9357844645773519e-13  -3.2880969604941892e-05  -3.9391052726753124e-24  -1.8144199854964934e-23  3.0212037737566957e-08  1.4140309407497550e-21  -1.0860406897904613e-17  -2.0846024848686196e-06  6.5571996939597032e-04  7.8846695156542095e-05  -1.0128008900148918e-19  1.0839456819853178e-16  -1.0344688893267125e-04  9.2419905006727698e-11  -4.2094275624688872e-19  8.0052143030904637e-05  1.0325929154510005e-17  2.5791710392910644e-22  1.7998032183017030e-14  -3.0281130661032173e-20  -6.4511310289162177e-17  4.3953155908470059e-13  -1.2302115003871206e-18  -1.3093155943544613e-13  -2.2010841796818543e-18  -5.0609541134734607e-07  2.1632329634314833e-11  -1.0458984104468234e-04  2.8791059433073391e-10  1.9976604796444502e-17  -9.7590443648766127e-07  -3.3349032081367232e-15  6.2769204789796355e-12  -9.3539725746074507e-20  -4.9596184737645273e-15  -4.6881105127227741e-19  -1.9184483712573818e-19  3.0973789521339202e-11  4.8443170718659496e-12  -2.5045887603129791e-19  2.6925939048704997e-10  -1.9008900644606968e-08  3.4757416584768602e-10  -9.8033631541756107e-08  -2.2731336150708230e-17  -3.0899644651908976e-16  5.1994482299993223e-12  -2.0535701685947756e-13  7.3180376089814515e-07  -7.2220604863857443e-17  -4.0682834240112240e-17  1.3116612133770464e-17  2.4667313614109588e-16  3.1907753534935883e-14  2.2335434043751992e-17  3.8679722177547911e-18  -2.5357674415731617e-03  2.7446847555845332e-05  -2.2532234690093758e-08  -1.4750861649187138e-07  5.0830390680435570e-09  -3.2320124192752495e-09  -3.9969470549463074e-09  -9.3019498719808145e-13  5.3081168556555029e-13  -4.1516743648052310e-08  1.7882484106827397e-19  2.4769570599919838e-12  -5.0743466629547647e-17  -3.0693999289035381e-10  6.0085966897768334e-12  -1.5474130512819107e-10  3.0882489565519230e-08  -6.0488664179183453e-19  -1.0253628964510934e-18  9.0731711163532711e-12  -1.9516384713826593e-13  -9.8634115281588787e-15  1.6799027395767451e-18  -3.0400603372610807e-16  -1.4776974042102444e-10  2.1572910993579147e-09  3.7238379800785961e-19  3.9201686052087804e-19  -1.3424221017943959e-16  4.3695892993982856e-12  -2.4232923096155751e-13  5.1187776824838475e-12  9.4960587803430493e-14  -1.8601946283623102e-11  1.3448171353932030e-12  4.8432614454232142e-08  -1.3452467689226109e-21  1.1007168273273997e-19  1.4752624602875256e-18  -1.9712068672497979e-14  2.5432737459390297e-14  -2.1368381479642212e-19  9.5391027039710572e-21  2.3776748297252988e-21  -6.2611769787463392e-20  -3.4224834879160647e-12  3.0992652366046926e-12  1.0101237017879301e-13  3.0152091045886811e-09  -2.8355931009493617e-10  -9.1621888577992059e-11  -9.2894957569014297e-18  2.0168698955014515e-10  -2.8023687593147085e-16  -3.4584311759266321e-09  -8.6344698891173543e-20  -1.2266136178542441e-16  1.2382061703914800e-16  1.7646708786188478e-16  -4.8879827360114549e-16  1.1341285980335788e-15  -3.3421471657359905e-15  8.9977577978175443e-14  -1.7000188953103235e-13  2.0269648321519627e-13  7.8226049682959974e-12  3.5017876134980315e-21  1.1556400924530030e-23  1.2590162294437331e-17  5.2237342926141013e-17  1.9770870898047923e-21  -1.1691034239653539e-18  -7.1517508474518884e-20  3.4166513942566033e-19  2.3686438497823075e-17  1.5176985536610482e-17  6.0632112912880466e-18  2.7364925777359689e-18  -2.3535659963743390e-18  -1.8771144110489661e-23  5.8736466835545069e-20  -2.9141580234192819e-21  1.9030358610729117e-21  6.0016563621793884e-19  9.7420696776609732e-04  5.0030306839927830e-09  2.0499203114975027e-10  -1.5891359821452845e-11  -1.6009424877806191e-19  -7.9689091940254559e-19  2.3039865761182473e-17  5.2468601409064185e-23  7.0420034482173368e-08  -1.3021877351805714e-13  4.8665779842417361e-19  7.0441565724555014e-08  2.0988448020443056e-20  1.46925295755257