<?xml version="1.0"?>
<VTKFile type="UnstructuredGrid"  version="0.1"  >
<UnstructuredGrid>
<Piece  NumberOfPoints="3002" NumberOfCells="5870">
<Points>
<DataArray  type="Float64"  NumberOfComponents="3"  format="ascii">323455.6100285493 6048753.88242996 0  323455.6100285493 5954782.59950515 0  405920.1480513444 5954782.59950515 0  405920.1480513444 6048753.88242996 0  405920.1480513444 6001768.240967555 0  323455.6100285493 6001768.240967555 0  364687.8790399469 5954782.59950515 0  364687.8790399469 6048753.88242996 0  364687.8790399469 5996367.117560402 0  323455.6100285493 6025261.061698757 0  382226.6271443229 6022560.499995181 0  405920.1480513444 5978275.420236353 0  323455.6100285493 5978275.420236353 0  353897.8957397301 6022560.499995181 0  344071.7445342481 5954782.59950515 0  385304.0135456456 5954782.59950515 0  405920.1480513444 6025261.061698757 0  354379.8117870975 5975574.858532775 0  381582.8168806895 5978840.396198289 0  384950.2598624413 6001768.240967555 0  344643.0480768835 6003429.02033719 0  344071.7445342481 6048753.88242996 0  385304.0135456456 6048753.88242996 0  339717.0321562298 5986078.187627405 0  337515.036058786 5969821.016310448 0  368062.2614420265 6013076.224998265 0  368062.2614420265 6032044.774992097 0  393987.6142659165 5988729.699941677 0  405920.1480513444 6013514.651333156 0  392856.2821527076 6034589.119828064 0  393514.9611654527 5968369.338068204 0  339399.8087404341 6032061.482581838 0  323455.6100285493 6013514.651333156 0  374995.9462927963 5965504.865595459 0  354379.8117870975 6037976.901948514 0  338123.9088969378 6017031.529131207 0  367397.3120126425 5982072.559192053 0  351882.5752379905 5991998.990225234 0  376945.425450199 5991232.708824487 0  392265.0061656896 6013300.936254065 0  357029.7426706699 6006608.947964352 0  380093.6207558212 6036880.127749795 0  323455.6100285493 5966529.009870751 0  405920.1480513444 6037007.472064359 0  405920.1480513444 5966529.009870751 0  323455.6100285493 6037007.472064359 0  333763.6772813987 6048753.88242996 0  405920.1480513444 5990021.830601954 0  323455.6100285493 5990021.830601954 0  362879.3643765316 5966837.319094267 0  348367.6438548031 5965604.161682394 0  334493.1989038612 5996935.948935225 0  395068.5043068817 6023875.372615605 0  348216.0324377587 6013504.844950221 0  379305.9090074943 6011603.390019651 0  372523.5158233726 6003480.000732267 0  395435.2039568929 5999384.346358113 0  395612.080798495 5954782.59950515 0  333763.6772813987 5954782.59950515 0  395612.080798495 6048753.88242996 0  374995.9462927963 6048753.88242996 0  374995.9462927963 5954782.59950515 0  354379.8117870975 6048753.88242996 0  354379.8117870975 5954782.59950515 0  335074.5981535012 6007206.680367459 0  391925.2695590468 5978591.908877409 0  371969.1707190623 6022560.499995181 0  383872.162544519 5969415.106147043 0  358038.7139835292 5984533.09712744 0  369699.869182786 5973102.2359358 0  369841.9126663716 6041099.453006387 0  343176.7440329155 5994428.220622956 0  362933.5332293962 6024385.235173292 0  330640.1760208776 5984148.625419154 0  348684.7494355051 5983110.856817525 0  399094.9690929834 6007537.420809742 0  345447.6324516311 5974162.84917082 0  332859.7749513451 6039150.972778062 0  344517.044630671 6024057.945416138 0  332973.1214415312 6025037.914505113 0  341428.0126373461 6040493.820728126 0  385874.264691618 5992757.40885039 0  350337.3662538711 6030387.535304286 0  359887.2373602368 6016186.250094838 0  377097.8989316926 6029115.217702097 0  338917.7109078235 5961484.016839475 0  329495.5261590715 5972402.215053552 0  336644.7280634616 5978216.610794215 0  330688.6715098422 5962480.256438018 0  359899.8039476132 6031963.415584587 0  399746.255941904 6030426.523907755 0  385511.6875144855 6030368.508996127 0  387377.735783329 6040763.821024337 0  398832.192399829 5974431.100387635 0  387992.9498994246 5962432.032572681 0  405920.1480513444 5984148.625419153 0  364925.7641745284 6005782.953640081 0  361769.877068089 6041226.651684469 0  398452.9199001931 6040850.732439541 0  398946.6205243983 5962252.502309519 0  362305.5577564609 5975984.89789681 0  356822.8065216601 5998470.186307689 0  386900.7115926162 5984820.732438302 0  329528.0119279922 6032067.230024892 0  331139.6939744562 6013813.572928222 0  398457.5876798834 5982541.698799337 0  405920.1480513444 6019387.856515957 0  398685.5166750694 6017257.578706384 0  348587.9424884976 6042755.309150081 0  369841.9126663716 5960143.732550304 0  380149.979919221 5960143.732550304 0  359533.8454135222 5960172.384722514 0  377147.8814772839 5972649.581024994 0  341756.3455763521 6010124.092444684 0  355615.8176864882 5966311.193813809 0  369144.4338274571 5989807.770003954 0  375185.9047422862 5983510.422041401 0  323455.6100285493 6007641.446150355 0  391856.7960121195 6005888.565703365 0  371978.0245217044 5996361.134308098 0  405920.1480513444 5995895.035784755 0  378877.1880032702 5998073.745937059 0  359056.6617417652 5991643.489540118 0  399278.8743430426 5993436.466134224 0  386116.8775939071 6009922.097099247 0  323455.6100285493 6019387.856515957 0  388994.7833819839 6019826.789191471 0  348897.6207366391 5998116.079250046 0  345456.3301153719 6035064.814295612 0  323455.6100285493 6042880.677247159 0  334124.3013408988 5990072.953472659 0  377097.8989316926 6018059.782440464 0  323455.6100285493 5995895.035784755 0  342871.8474798963 5980154.238874755 0  373596.9793292385 6035659.183886081 0  380149.979919221 6048753.88242996 0  376327.9292813152 6042294.581731233 0  329163.3548105369 6004704.843558955 0  350303.9432136903 6007093.032074522 0  383982.6552804571 6015912.664375832 0  345515.490569988 5988567.439252969 0  379019.812877927 6004678.052169549 0  365541.9137639466 6018750.691894444 0  349225.7781606728 5954782.59950515 0  352493.3399767278 5960815.406895458 0  363683.8130458911 5986976.225872464 0  386666.791301207 5975084.583584332 0  368937.6553346639 5966171.092344863 0  400003.9882214358 5968352.273777306 0  328776.0063842635 5992958.433193355 0  339958.4428758043 5999572.344589042 0  354577.7732363954 6012555.454074449 0  328609.6436549741 6048753.88242996 0  382053.0280278458 5988228.496807038 0  330708.6817934912 5978212.973348036 0  372084.7734679543 5978495.086505585 0  358568.2738174705 5971419.415228934 0  328931.2672829705 5998832.905089681 0  323455.6100285493 6031134.266881558 0  405920.1480513444 5972402.215053552 0  405920.1480513444 6031134.266881558 0  323455.6100285493 5972402.215053552 0  405920.1480513444 5960655.804687951 0  323455.6100285493 5960655.804687951 0  405920.1480513444 6007641.446150355 0  323455.6100285493 5984148.625419153 0  405920.1480513444 6042880.677247159 0  346648.7613474604 5960023.05127712 0  342415.3891593561 5966358.988213831 0  350507.6510228226 5971111.740321856 0  391773.9667214506 5994456.117700323 0  338875.8905424621 6026088.827345025 0  361429.1735454847 6010511.262533597 0  389395.7028803263 6025805.543023561 0  392895.6464692951 6043315.288173481 0  332846.8296575367 6019296.633131165 0  373337.4404588729 6009693.515402478 0  336544.3064612215 6043648.151399015 0  348610.2411382072 6019567.839754772 0  381943.4597763228 6042183.394750732 0  355630.0631288611 6028071.82801846 0  363941.5238882306 6035967.852698964 0  328179.67203552 6022271.326978176 0  401066.2857736665 5998807.415073814 0  344387.1099621175 6029612.545574771 0  393435.2235156003 5960233.556458537 0  400735.9970493424 6022675.638064924 0  393708.5772019727 6029179.837160029 0  400609.0696943338 5987857.851798974 0  361753.6614662939 6001152.171757337 0  400766.1144249197 6048753.88242996 0  353363.0524357285 6002630.165620538 0  343248.328463803 6018790.640008039 0  356419.8105951758 6043365.392189237 0  390234.385899412 6000759.497967276 0  368336.1168551637 6000220.532318851 0  328609.6436549741 5954782.59950515 0  387520.8298169724 6035372.992507171 0  400588.0280660195 6035823.299583429 0  329021.6598427091 6043194.252697862 0  393371.710206733 5983576.325812268 0  393638.9721728675 5973623.513063556 0  371727.9212466564 6017113.044457142 0  364687.2762977295 5959941.212693035 0  374995.9462927962 5960346.83186599 0  369841.9126663716 5954782.59950515 0  400766.1144249197 5954782.59950515 0  338917.7109078234 5954782.59950515 0  369841.9126663716 6048753.88242996 0  359533.8454135222 5954782.59950515 0  390458.0471720704 6048753.88242996 0  338917.7109078234 6048753.88242996 0  390458.0471720704 5954782.59950515 0  359533.8454135222 6048753.88242996 0  380149.979919221 5954782.59950515 0  349225.7781606728 6048753.88242996 0  339867.4956514095 6005339.817053361 0  333737.9460226952 6002130.523287664 0  336955.8140048417 6012008.440073739 0  377097.8989316926 6023232.32559834 0  371748.9790486701 6028016.629988787 0  338146.5171983215 5993298.164761053 0  355016.8390227688 6017610.913088997 0  393953.1528190996 6018968.416019509 0  335185.8133477239 5965142.63403323 0  328616.6041642396 5967263.80307608 0  380314.9487662361 5965460.362415641 0  354622.8993466098 6032976.142863722 0  328521.4725131759 6027215.026914048 0  334465.0783479523 6034070.534389696 0  328123.6212682287 6009699.206425843 0  381889.5169855529 5973936.741901617 0  359122.3484437474 6036790.002992895 0  386341.6533148278 5979963.279841923 0  400798.2159679119 6012477.871311778 0  388538.3765260249 5967461.292146791 0  340833.8784183678 5975728.708105717 0  355307.6239213505 5988552.151815021 0  362181.4274823388 5981261.937800813 0  353784.0322742948 5981044.538811012 0  358045.1698423899 5978741.391518688 0  328423.7350325213 6036912.015930048 0  366897.6876966125 6027277.723668203 0  347355.1745641421 5978532.307510624 0  376820.5060332146 5979033.270735624 0  349378.1778589479 6024378.632814493 0  327189.2282939323 6016451.253924556 0  338433.8773236172 6036753.902881841 0  350141.9760340559 5987605.90026687 0  363794.7083927878 5991713.491814731 0  350325.1285660182 6035273.515460094 0  382355.9358007369 5983507.499638396 0  327107.0747437811 59811
[...]
<PointData  Scalars="f_58-1"> 
<DataArray  type="Float64"  Name="f_58-1"  format="ascii">6.2424741943499113e-25  7.3447328968865197e-24  -2.5195409412917040e-19  2.8413149236264355e-22  5.9380620457857678e-12  3.8100508619184137e-18  -1.6620362827019523e-17  -1.1842634349741428e-17  8.9778414692788713e-03  -2.0298020358041554e-19  -7.1776637085873942e-12  -4.6993641861661588e-14  -1.3331293435769003e-19  3.0436125086644513e-10  8.0212499384094997e-20  -2.3917894085325366e-17  1.2135444863330536e-16  -8.1058145117045046e-13  1.0184823058142788e-06  9.2657162359018879e-05  -6.1023448148248403e-10  -6.5175052803355568e-20  -2.2588906256494306e-19  2.1563706362082205e-13  3.9998681345124822e-19  -7.1974930562040175e-07  3.2883520634471749e-12  1.4972239482922842e-07  1.6412662723185567e-13  2.9424609568400906e-17  3.9207895736686767e-12  -1.8394396305206491e-17  -8.1630852854417864e-18  6.8962249188930486e-12  3.6444628071447574e-14  1.4375873350520811e-13  -1.2609336258539496e-07  8.8715116272998211e-08  5.4898379971621281e-02  1.9522113530880131e-09  6.4460732211747780e-05  1.2339844291114642e-14  2.3917648795922936e-22  1.8966944369024843e-20  -2.5208778872217727e-15  -1.3106656650848078e-20  -6.8998893653547777e-22  -1.0926014735424052e-12  -5.7583331865364706e-18  5.2697243569266531e-13  -1.2826605747263852e-17  1.2289141465410753e-14  -5.5226305634997192e-16  2.2991440721282902e-10  4.5439547713833191e-07  2.1696686252135257e-02  1.6359986613891716e-07  -8.3267035607295816e-17  -5.3633772040136755e-22  -1.2815057641771160e-20  1.0116208191652489e-18  1.4140435926627434e-17  6.9974236027232911e-19  4.7411834908721361e-18  1.6940045021680275e-12  1.0877504922171389e-09  -1.5466754167313349e-10  1.2258404892498882e-10  2.9596905931042171e-08  2.8915635225892460e-09  7.1649891595810264e-16  1.5249734754283290e-09  7.9304520795806385e-10  -2.1587957022206922e-17  7.1277360041571202e-11  2.0361712020769255e-10  2.8266457359091075e-13  7.0103230076514558e-21  2.5300046119274933e-13  2.1120427798821014e-16  5.9744830222410892e-19  -1.2929049477913599e-04  2.1277609494930162e-12  -1.4882515813127721e-08  1.8651281607117614e-12  -2.0138443226448457e-19  -3.9098526979086656e-19  1.0330754376748066e-17  3.4734128731837431e-21  1.4988478791678737e-12  -2.1219671668656529e-18  -1.9920244467575563e-14  4.6417103306134252e-18  3.2921380512604312e-12  5.1383079674673399e-13  -4.2829553378056607e-13  -3.7119279573077711e-03  -8.8406984078241672e-16  1.8322382139646761e-19  1.4435281608699312e-16  1.4546959919102712e-11  8.7808124419312252e-05  -2.1134745725894886e-07  5.1841221170821919e-19  -8.8881565619318457e-16  3.7016112397599097e-10  6.1075753469433223e-15  3.3425125659675701e-12  -9.5117636499052817e-18  -1.3783876695126941e-15  5.7313175724447913e-14  3.8813909626265318e-16  4.0834060368870371e-09  -4.5030420999675992e-12  -5.6392246299084646e-15  -2.0523020130000714e-05  3.4785663909359793e-05  7.1517906044115078e-18  1.9030477749007166e-08  1.8963026298818073e+00  6.7171778521112774e-12  -2.8773677983071682e-03  -8.8606951979022641e-07  3.1534768620409054e-09  -2.7790062686821684e-08  1.9962747861588189e-18  1.1117379007669150e-11  1.4893035871309131e-08  3.0375473701335082e-18  -3.6520156103762371e-22  2.4098291043009494e-13  1.7380157474141056e-07  2.3392478413456164e-17  2.6654824384622069e-13  5.1671461607270444e-15  9.3342361218030701e-20  3.0548141642743640e-17  3.2763966302500793e-16  1.1605538179511195e-07  4.4146101649092439e-09  -5.7193695387961442e-12  -4.9450489187836095e-06  2.6294478356585754e-08  -5.3020630680312906e-19  -3.1621400475493248e-17  1.3425042021023613e-05  2.6555187175492275e-08  7.9930586718885378e-12  4.9788571060685170e-14  2.1611548136718812e-17  -1.7467534368866822e-11  1.3565962951886379e-07  -2.3130516288667879e-23  2.7548830941552809e-03  7.8841704321568202e-18  -3.8638589145846994e-08  2.5417509703926444e-11  -8.3988071984610470e-16  5.7985722825633368e-21  4.1328851987239686e-14  4.0093083571763660e-18  6.1963080530490260e-21  -2.1935743270503676e-17  2.6278637974841492e-23  8.3892084408129018e-13  -2.6407836528086496e-18  -3.1095095019673654e-21  -3.8074648849565455e-18  -1.4771039684234094e-18  -1.3754604403381458e-14  3.0534266934286601e-06  -1.4758913924963491e-15  1.5812735911154731e-05  4.3821385537569797e-13  3.8027568690979755e-19  -1.6169325163322959e-16  9.1159568693173376e-05  -7.6381518049423353e-21  1.1592487626184262e-10  -1.5307884358763511e-18  1.8151063980595261e-11  1.4684125659375982e-14  -2.2766424414506723e-18  1.0416285978967498e-10  -1.0510643680336642e-15  9.2984316430937015e-15  2.3344070090047331e-16  -5.5512530069785847e-16  1.0069236311183144e-10  1.1033250610145892e-02  7.9746313956358266e-22  3.8526668730909256e-06  -4.3785956052902612e-13  1.1469775408731848e-16  6.8611805481563591e-07  3.2762745260068185e+00  1.3830935358312315e-22  5.2390449672585783e-16  -1.1968769223461617e-18  -2.2294445970664911e-22  3.0810460983026751e-08  1.1662378538755197e-10  -1.8158432194120849e-08  1.4617677495100001e-15  2.0122144261053271e-14  -4.0792844877405443e-17  4.1153214922938985e-18  -1.5790153171491040e-20  5.5786157302986759e-18  1.1980675375023238e-17  8.4681253448178392e-21  -3.1071078866409966e-21  -1.1942213383092555e-16  1.4380126789164365e-18  -4.3202409377042184e-17  -1.5560283862173030e-19  -1.6719128411335976e-11  -4.3449223306889676e-14  1.8201202081724809e-12  -3.9964606158288035e-11  3.5931093504428615e-11  6.5230447473657153e-12  7.4460545565540119e-09  -1.7593056790011540e-13  1.4361553243060876e-19  1.7369752739423392e-20  2.4310439586099485e-12  1.1382699652722756e-12  1.5068235155410159e-18  4.0087572774358630e-19  1.1147920566831974e-16  3.3120972936125495e-09  7.2894955285013429e-14  -1.9731120978159730e-09  3.6103274638453048e-12  1.1175248168157809e-11  -2.2529263468798610e-15  3.7674957128499564e-08  5.4820664049395690e-09  3.7334391446308672e-10  1.5798930513228925e-09  1.2307509045362146e-20  8.1018938385139070e-11  2.8890631481063267e-12  4.9453611951721646e-07  1.6800079066819773e-11  4.1277430730122105e-18  -3.5184485461975076e-20  3.9712573666070411e-09  -3.8799382616376139e-06  -7.1271236058044954e-16  8.6012035300986054e-05  6.0574735156905624e-19  7.5263075339515063e-15  1.2118742689422695e-16  1.3335764776154566e-02  2.1315330978864222e-10  -1.3914090402907625e-11  -2.1453945745929514e-09  3.7733444217451203e-17  -1.3549434325246838e-16  3.0227217031313192e-13  7.8239710239876406e-19  5.6993194030325734e-18  -2.4907870738515333e-10  5.4224538985832419e-06  2.8700971248719776e-18  3.9643306984564811e-04  3.8465333053429947e-14  -6.8358847735446326e-10  -1.4919864472875474e-07  -4.6497901616512557e-03  3.1762346348314822e-09  7.2427576600251548e-16  3.8474765188315104e-09  1.1516714254875054e-10  3.6382438839546843e-09  1.2462135186929729e-09  -9.5196784661358642e-07  -4.0859713184141420e-13  -5.5073339824136680e-12  4.1719684409765388e-11  9.9158984803482711e-08  -2.5880713036371320e-08  2.4224504608350968e-04  2.2288243130374248e-18  1.0495091670137023e-09  -6.0978853429380065e-20  -1.7652979539695567e-17  9.4821578289312176e-10  -4.5493929353271300e-13  1.1310894233799018e-10  -1.5809230553708264e-20  -8.0082832328392413e-13  2.2206861002154816e-14  3.2615847922614427e-03  -1.7707521082021394e-16  -8.6670973510811121e-21  -6.3446186937069629e-19  3.7076501187977189e-06  9.8878819291705392e-17  3.1783277887101851e-14  4.8097400891297032e-19  3.4131004704410182e-12  3.3574621217350419e-21  1.6940127559967012e-20  2.3077995345540168e-21  -3.4027734667627821e-03  1.2877025722397736e-17  1.3871168658299569e-04  1.1683574700385966e-17  1.0612745310688875e-21  6.7049584664958621e-17  5.1720936481103924e-13  1.6163674850264453e-13  -4.3924317253013718e-16  1.9424043362795939e-10  2.4059457529431727e-13  -2.5185824580302893e-16  3.9299891819591365e-17  2.0617448066200470e-13  1.8142009788837409e-06  2.8250481269755757e-04  4.0541968405026388e-04  -8.4158361103109291e-18  3.3879661653886696e-11  1.8751845009493232e-14  1.3335548583409080e-22  8.0677109860913737e-21  4.2693929708410680e-13  1.9596201920713286e-12  9.5925488005677679e-13  1.6549471207238362e-12  2.8727821823623515e-17  -1.3832087934315885e-16  -2.5620035807299944e-17  1.8181513894727217e-03  2.9511816654201318e-11  -2.1461604305940628e-15  4.5912530925075732e-10  -4.6880637129408455e-05  6.5689595072978071e-03  1.5729309084852133e-02  -1.7981324251675071e-03  -1.0644739508648044e-16  8.0008376854896568e-09  -2.7196334018863743e-13  1.4830710395508551e-13  5.3672288805665954e-13  1.2580887268914585e-10  -1.3120580333854279e-23  2.9005816579500520e-21  8.0466068198213144e-08  1.3221569332994285e-14  3.3298006874009014e-15  4.1816754708750257e-07  2.8638276127238407e-17  2.2660791953583337e-09  1.4767365696910490e-17  1.8955805811651442e-09  1.0893126316379024e-09  -4.3096503345095990e-18  2.2566531967175909e-20  2.8045212328292937e-04  -4.0754047065632424e-12  1.9340704613735449e-13  1.1691929825732871e-14  3.4678584820088955e-14  -9.4536083865049203e-22  -3.0241895870053555e-19  3.8867788016245175e-18  -9.6280924280190097e-05  6.3607332477107010e-11  5.1864206622490444e-17  -2.8300337844961039e-16  3.3355419227079166e-14  8.5292319739799425e-14  4.1015957176392240e-17  4.9832338024068626e-16  5.4179000141832145e-08  5.8101251160090765e-08  1.6387502543882801e-13  -2.7280331552572976e-19  8.0520112089678616e-14  6.5213773705169017e-11  -1.5835427629688991e-18  1.9252538789922266e-13  5.2897861133314604e-05  4.0633739279643282e-10  -8.3087247690098650e-14  -6.0975600710570859e-16  3.1500501614004145e-17  -6.8490947327232834e-21  -5.5887251968482511e-15  -4.0473705942397735e-07  3.9398969158952701e-11  1.0941918726145563e-13  3.6566123503886861e-11  1.2665733115522257e-12  2.1863934112261827e-13  -7.7369330912970640e-12  2.0295083324695247e-11  -7.1870913230684036e-19  1.0546097179479224e-15  7.8393508917538232e-08  6.8310903715029727e-09  4.8419585008012878e-09  7.4507531007657417e-08  3.3507551568227222e-07  4.1214199629995626e-12  2.0322509952102196e-09  3.2112307981340488e-16  1.0211769924072015e-15  7.4480553822532493e-06  3.1873274652957240e-20  1.0959485463723103e-04  3.6297834252231946e+00  8.5104252351029337e-21  1.5157143389574704e-16  1.0170831278110655e-07  -4.6993824541963863e-13  1.4590263556581013e-06  -2.5811990573694258e-16  8.4572057310009937e-19  -7.3542204742290950e-19  -8.4859933427110337e-21  9.0544916682305023e-18  1.5935803686079453e-10  1.1363874664069656e-09  2.7036499580648957e-13  5.6167375384477050e-12  -4.3515948659736582e-19  2.4289825608575354e-10  3.2867863806979381e-07  -5.6755905045466070e-08  9.1666361507251907e-11  3.1284411309861144e-16  3.3293450286195041e-11  1.6932527966474515e-06  8.0313941064207637e-08  1.0191057687371191e-06  1.3035025634790292e-10  -5.5819701282649398e-13  7.7436659321387907e-02  4.7110200224579423e-20  -1.4373445619036694e-12  -5.5815926052464933e-12  4.6902166875344665e-09  2.2453599977480696e-16  -2.1219776260416909e-14  -1.8217792643796373e-18  7.9589285692255984e-01  3.5353621182959259e-07  2.4348563178250428e-14  -1.4304102933650200e-09  9.7947347372797059e-12  -4.2942177438178620e-17  4.4461013030684858e-10  8.3469895857619924e-14  -7.8367607583691682e-08  -9.4826951232439253e-17  -1.3821628165769974e-16  6.8865126476161372e-14  -4.5294494812830471e-13  -2.4362200617361296e-20  8.9778750400575815e-13  3.5328724060935505e-17  4.7000185502967471e-10  -1.7905994540457143e-12  6.5996661462771587e-08  1.6803806177147891e-16  1.3648977065809220e-09  -2.1762819006064683e-13  1.1420121832598570e-20  3.7921446786305080e-01  1.0974084092504252e-16  1.1099301841993145e-11  7.6353241932050142e-14  -3.1331251605746073e-10  -3.1803016424573862e-09  -7.9799702489238814e-18  1.8767366186905802e-10  -4.7064923161924382e-05  -3.4459829961626988e-16  -2.1232445250443333e-12  4.7777421773077041e-13  6.8152029821612352e-14  -7.1075719432605305e-17  4.6410760496717803e-13  6.9266212888506176e-06  1.6575764154550880e+00  -1.3513864661354472e-12  5.3525923366576640e-12  9.4515890797006782e-22  2.1982473590510310e-11  1.5542611259645233e-09  9.2324748591312218e-08  -2.5419351300101025e-18  2.8645484200643322e-16  -3.1248965013198288e-17  -1.0069029974577417e-09  2.1318362353876029e-19  2.0060109712063101e-19  -8.2400354706982612e-20  1.0688107053172823e-17  4.6849131931993560e-09  1.0964464692150377e-07  -6.9578819379823939e-10  9.0232823770421570e-18  3.1641452949963210e-08  2.9221326198974874e-14  3.1888711158996103e-09  2.5673378910993997e-16  3.3213727568700425e-06  2.0670691807907729e-08  7.3971502187532179e-10  1.5240351041231696e-11  1.6413867469803385e-11  9.9452357262966261e-11  2.0443315003771088e-02  4.9796261367104249e-04  8.2228044128674356e-07  1.5402294307596457e-08  -3.3455061941752455e-17  5.3473085551634806e-04  -1.3320807731127224e-17  3.4037758385294187e-17  -4.4287583838097254e-17  7.6507853962233599e-18  -9.3189839737087213e-17  -3.0047475197686597e-16  7.3436565972720493e-22  7.0231427013458800e-08  5.4470612396147270e-17  -8.2907928984267529e-20  -1.5165328567551020e-18  -6.0729472962923377e-18  1.9244447432724992e-15  3.0677290678060158e-10  -3.2533194610562405e-23  -3.7499747928075726e-23  1.0706790637239127e-16  -1.1133828360854818e-23  3.9779465012276241e-08  1.5279484966251603e-06  1.3789183949972136e-06  -1.0128892451123146e-06  -3.4640395361776339e-16  3.1315709591783996e-07  -2.4906479391968795e-20  -4.8870055069094536e-10  3.2379218877808197e-13  6.2182305124639867e-12  1.8457448522380132e-12  2.2899490931165740e-12  6.4055330449564503e-08  7.6904459634279091e-21  1.7552804166035583e-20  -2.0252643421086477e-18  -3.4092941873846825e-19  5.2409258933883879e-17  1.7325412499089291e-15  7.3570467514757160e-09  -1.2436144198229923e-12  -1.6742684469890816e-18  1.5485787113541558e-09  1.3061573676937667e-10  3.1024710463670855e-10  1.0624696901378531e-05  7.3698684161319617e-12  2.3047873301542864e-18  8.2720627002502641e-17  -1.4145196550048173e-18  -4.9239679366110817e-15  1.7163273545417301e-15  -1.0145543282752555e-16  5.6978101647678700e-19  -6.2324011485365410e-16  7.6641439543437886e-14  4.7887387073087523e-14  -4.5497338269399019e-18  9.9651660515228269e-01  3.4435581748624441e-04  7.3250787440817609e-10  -4.2925051730142158e-20  2.5792259596618100e-18  -1.9048499058709180e-17  2.3081486635111760e-19  8.9052857057423094e-22  1.5715470176721370e-17  1.1413612340375979e-21  1.0382516740493732e-03  1.8292283060624150e-03  -2.7676354615522510e-16  3.2522592354021811e-13  4.8729817972735335e-12  9.1375292423791993e-18  6.1352164696012999e-19  3.6446052754533455e-13  2.2772521698218147e-08  -1.0926768758417787e-09  -3.6574981862398379e-07  1.5686704744205726e-12  -2.7920838632560103e-08  6.3333022450864787e-04  4.8717314927989117e-03  1.2825613546113987e-12  1.4032435622341478e-15  6.2425987107844689e-15  -3.2827461032308633e-16  -1.3770444236866332e-17  2.8508569169335947e-18  5.9691076665195515e-14  -1.9306107590876149e-18  8.7314084665109917e-20  1.4294974949236525e-13  -1.7258778219024865e-17  2.1673861897051739e-16  1.4217494057977151e-22  2.6053827149177436e-20  1.3623316006238479e-12  9.2015672167372075e-19  7.4475175778475757e-12  3.7464006666367683e-16  -1.2573471314376755e-14  -4.7417358411418278e-16  -4.5960432339733343e-09  -2.5913897195636500e-12  2.4884313054793117e-11  1.0557706248945904e-12  -5.8657369966309613e-19  6.6924242065238312e-20  2.6692816815632928e-19  1.2591291511782133e-21  -1.1630578512316260e-19  -2.3393960714884537e-22  3.6070871679193745e-12  7.3950384177342304e-10  -1.4322508396712535e-16  3.1969409519005085e-17  4.3680367025903772e-09  9.1364752062349169e-10  -2.6765758486605893e-13  -3.0199415601809522e-13  1.2241703998429067e-11  1.0300601492049275e-10  7.4706891833252082e-13  -1.0076903658303585e-15  -9.4878217702928669e-18  1.0790546973884590e-16  4.6095089284890598e-14  -4.5129356950373483e-16  3.6842172015728109e-17  -6.7060665804385610e-06  5.0179194246652602e-12  -3.8193637519452862e-17  2.1627674483917578e-06  2.8545247829677127e-13  1.7295548485889747e-12  1.0905387974914805e-14  6.9837004247217044e-11  8.2776658083163323e-03  1.2807264052939120e-22  -2.2312428434998085e-23  -3.7378165733063085e-08  -3.1270188329189751e-21  -3.0419015734563087e-17  1.2693353008143927e-04  -5.1863894365246493e-03  7.2967820167732502e-03  4.5784325446427909e-19  3.3839868314119490e-17  -4.0412723854802790e-04  4.1815882096013741e-09  1.0867104191059750e-18  2.0357762573288379e-03  1.3388434176388527e-17  2.3355696349472706e-22  1.7743475586276212e-13  -7.8020867896422316e-20  4.0797676705150350e-17  9.1434900246587091e-13  -1.0183541550618710e-17  7.5929638188337197e-12  1.5827068927398894e-18  2.6335913553455473e-04  1.5609165519662187e-10  1.8877666555762427e-02  2.7178362101041194e-09  9.1705764959041825e-17  2.7520521802780547e-05  -1.1372334721778910e-15  2.6419389703800537e-11  -1.9577519784180117e-18  2.6181981358018366e-13  6.7605991415708206e-18  2.4447809396350083e-19  7.2216261744866723e-11  6.9141790998455770e-11  1.5037161894667994e-18  1.2233826833824126e-10  -5.1568967364640586e-08  1.0676539643325024e-07  9.1358687579194256e-06  -2.6089957010848973e-17  9.9505235246647191e-15  3.3726893770572300e-11  2.7533237356537454e-13  1.2928735002078444e-05  -2.5511929494249458e-16  2.3826487619815952e-16  -4.9719073194809966e-17  -2.1741313265263940e-16  1.4663583599148052e-13  -5.4901122069530027e-17  1.7106868478636740e-19  1.3377781112227520e+00  -4.0525948577753539e-05  4.5154606113750829e-06  -7.4366452390876844e-07  3.5747232569542003e-07  -2.3006649713316059e-07  6.0832949631044231e-08  1.5333985914051512e-11  -1.8954744631331084e-13  2.8830752351103447e-06  1.0381796637144786e-20  9.7144838784066471e-12  5.6502659126630455e-17  -2.0927295629832741e-10  7.4944937738598711e-09  1.8086626009129647e-08  1.1774380965268099e-06  -3.9774319783390758e-18  -5.6097592473142328e-19  6.4626979758423197e-10  -4.6902774044231050e-13  4.6036760562079256e-14  -1.0411692055021198e-18  -5.6019531226665038e-16  2.4570281460005437e-09  1.3496727224934653e-09  -1.5135492625829132e-18  -5.0970679518903014e-18  -3.8465424966009613e-16  6.5599229025559402e-11  1.2929158860420007e-11  1.7146555583813910e-11  2.4664546483365895e-11  8.4380569693452299e-09  1.3505454621982553e-11  8.0985111748739503e-07  -1.3754579003748728e-23  -7.6039181988430202e-20  -1.1476381978707536e-18  2.0558433414912491e-13  1.2189770966094903e-13  1.5448556735999928e-19  -7.9671910281603611e-21  -7.9680574110480941e-22  5.4446990522293149e-20  2.6289655891295910e-13  1.5114234096267782e-11  4.9908007834023283e-13  4.4555525258767589e-09  1.1922941850833899e-09  -4.6958388140889517e-11  1.3119406209809965e-16  4.6049225312218204e-09  1.6406750021634473e-14  3.3843603649018949e-08  -3.3870620285157761e-19  -5.9299288948150073e-16  -1.7623731201301597e-16  -8.0320656527872984e-17  -1.6014814956466607e-15  -6.9073105003512649e-16  5.2809657280059287e-14  1.0444867194801935e-12  -2.3253809775163525e-13  1.6284819014119220e-12  5.5279968443706811e-11  -7.3127477726477076e-21  5.1030428220896696e-24  1.4934812733551468e-18  1.1817058793374521e-16  1.1336976268912797e-20  1.0288127093790157e-17  3.4807258598218752e-20  9.5139404539339826e-19  -1.4853246019974383e-17  -1.3524417264301357e-16  4.3488544664546670e-17  -3.4214890379437510e-18  2.4752120393167582e-18  -1.6176677099367628e-22  6.7442474769782308e-19  2.3643649689932775e-21  -1.1423573157534747e-21  8.0264618528079643e-20  -2.7152779162606402e-03  1.0881784835503578e-08  -2.4502001722896349e-10  -3.1504557603027812e-11  2.9486073699689317e-21  -2.5178592891893804e-18  -9.5909104773362594e-18  1.2957705078788131e-21  2.2199424700870731e-06  8.2090152333301083e-14  -2.2067871895174433e-18  3.5267536091924998e-07  -1.4131144311459775e-20  3.6826762387586334e-10  3.6754248145787718e-14  6.3904326886355007e-09  -3.1465973079829893e-17  2.4037029942253654e-06  5.77576