<?xml version="1.0"?>
<VTKFile type="UnstructuredGrid"  version="0.1"  >
<UnstructuredGrid>
<Piece  NumberOfPoints="3002" NumberOfCells="5870">
<Points>
<DataArray  type="Float64"  NumberOfComponents="3"  format="ascii">323455.6100285493 6048753.88242996 0  323455.6100285493 5954782.59950515 0  405920.1480513444 5954782.59950515 0  405920.1480513444 6048753.88242996 0  405920.1480513444 6001768.240967555 0  323455.6100285493 6001768.240967555 0  364687.8790399469 5954782.59950515 0  364687.8790399469 6048753.88242996 0  364687.8790399469 5996367.117560402 0  323455.6100285493 6025261.061698757 0  382226.6271443229 6022560.499995181 0  405920.1480513444 5978275.420236353 0  323455.6100285493 5978275.420236353 0  353897.8957397301 6022560.499995181 0  344071.7445342481 5954782.59950515 0  385304.0135456456 5954782.59950515 0  405920.1480513444 6025261.061698757 0  354379.8117870975 5975574.858532775 0  381582.8168806895 5978840.396198289 0  384950.2598624413 6001768.240967555 0  344643.0480768835 6003429.02033719 0  344071.7445342481 6048753.88242996 0  385304.0135456456 6048753.88242996 0  339717.0321562298 5986078.187627405 0  337515.036058786 5969821.016310448 0  368062.2614420265 6013076.224998265 0  368062.2614420265 6032044.774992097 0  393987.6142659165 5988729.699941677 0  405920.1480513444 6013514.651333156 0  392856.2821527076 6034589.119828064 0  393514.9611654527 5968369.338068204 0  339399.8087404341 6032061.482581838 0  323455.6100285493 6013514.651333156 0  374995.9462927963 5965504.865595459 0  354379.8117870975 6037976.901948514 0  338123.9088969378 6017031.529131207 0  367397.3120126425 5982072.559192053 0  351882.5752379905 5991998.990225234 0  376945.425450199 5991232.708824487 0  392265.0061656896 6013300.936254065 0  357029.7426706699 6006608.947964352 0  380093.6207558212 6036880.127749795 0  323455.6100285493 5966529.009870751 0  405920.1480513444 6037007.472064359 0  405920.1480513444 5966529.009870751 0  323455.6100285493 6037007.472064359 0  333763.6772813987 6048753.88242996 0  405920.1480513444 5990021.830601954 0  323455.6100285493 5990021.830601954 0  362879.3643765316 5966837.319094267 0  348367.6438548031 5965604.161682394 0  334493.1989038612 5996935.948935225 0  395068.5043068817 6023875.372615605 0  348216.0324377587 6013504.844950221 0  379305.9090074943 6011603.390019651 0  372523.5158233726 6003480.000732267 0  395435.2039568929 5999384.346358113 0  395612.080798495 5954782.59950515 0  333763.6772813987 5954782.59950515 0  395612.080798495 6048753.88242996 0  374995.9462927963 6048753.88242996 0  374995.9462927963 5954782.59950515 0  354379.8117870975 6048753.88242996 0  354379.8117870975 5954782.59950515 0  335074.5981535012 6007206.680367459 0  391925.2695590468 5978591.908877409 0  371969.1707190623 6022560.499995181 0  383872.162544519 5969415.106147043 0  358038.7139835292 5984533.09712744 0  369699.869182786 5973102.2359358 0  369841.9126663716 6041099.453006387 0  343176.7440329155 5994428.220622956 0  362933.5332293962 6024385.235173292 0  330640.1760208776 5984148.625419154 0  348684.7494355051 5983110.856817525 0  399094.9690929834 6007537.420809742 0  345447.6324516311 5974162.84917082 0  332859.7749513451 6039150.972778062 0  344517.044630671 6024057.945416138 0  332973.1214415312 6025037.914505113 0  341428.0126373461 6040493.820728126 0  385874.264691618 5992757.40885039 0  350337.3662538711 6030387.535304286 0  359887.2373602368 6016186.250094838 0  377097.8989316926 6029115.217702097 0  338917.7109078235 5961484.016839475 0  329495.5261590715 5972402.215053552 0  336644.7280634616 5978216.610794215 0  330688.6715098422 5962480.256438018 0  359899.8039476132 6031963.415584587 0  399746.255941904 6030426.523907755 0  385511.6875144855 6030368.508996127 0  387377.735783329 6040763.821024337 0  398832.192399829 5974431.100387635 0  387992.9498994246 5962432.032572681 0  405920.1480513444 5984148.625419153 0  364925.7641745284 6005782.953640081 0  361769.877068089 6041226.651684469 0  398452.9199001931 6040850.732439541 0  398946.6205243983 5962252.502309519 0  362305.5577564609 5975984.89789681 0  356822.8065216601 5998470.186307689 0  386900.7115926162 5984820.732438302 0  329528.0119279922 6032067.230024892 0  331139.6939744562 6013813.572928222 0  398457.5876798834 5982541.698799337 0  405920.1480513444 6019387.856515957 0  398685.5166750694 6017257.578706384 0  348587.9424884976 6042755.309150081 0  369841.9126663716 5960143.732550304 0  380149.979919221 5960143.732550304 0  359533.8454135222 5960172.384722514 0  377147.8814772839 5972649.581024994 0  341756.3455763521 6010124.092444684 0  355615.8176864882 5966311.193813809 0  369144.4338274571 5989807.770003954 0  375185.9047422862 5983510.422041401 0  323455.6100285493 6007641.446150355 0  391856.7960121195 6005888.565703365 0  371978.0245217044 5996361.134308098 0  405920.1480513444 5995895.035784755 0  378877.1880032702 5998073.745937059 0  359056.6617417652 5991643.489540118 0  399278.8743430426 5993436.466134224 0  386116.8775939071 6009922.097099247 0  323455.6100285493 6019387.856515957 0  388994.7833819839 6019826.789191471 0  348897.6207366391 5998116.079250046 0  345456.3301153719 6035064.814295612 0  323455.6100285493 6042880.677247159 0  334124.3013408988 5990072.953472659 0  377097.8989316926 6018059.782440464 0  323455.6100285493 5995895.035784755 0  342871.8474798963 5980154.238874755 0  373596.9793292385 6035659.183886081 0  380149.979919221 6048753.88242996 0  376327.9292813152 6042294.581731233 0  329163.3548105369 6004704.843558955 0  350303.9432136903 6007093.032074522 0  383982.6552804571 6015912.664375832 0  345515.490569988 5988567.439252969 0  379019.812877927 6004678.052169549 0  365541.9137639466 6018750.691894444 0  349225.7781606728 5954782.59950515 0  352493.3399767278 5960815.406895458 0  363683.8130458911 5986976.225872464 0  386666.791301207 5975084.583584332 0  368937.6553346639 5966171.092344863 0  400003.9882214358 5968352.273777306 0  328776.0063842635 5992958.433193355 0  339958.4428758043 5999572.344589042 0  354577.7732363954 6012555.454074449 0  328609.6436549741 6048753.88242996 0  382053.0280278458 5988228.496807038 0  330708.6817934912 5978212.973348036 0  372084.7734679543 5978495.086505585 0  358568.2738174705 5971419.415228934 0  328931.2672829705 5998832.905089681 0  323455.6100285493 6031134.266881558 0  405920.1480513444 5972402.215053552 0  405920.1480513444 6031134.266881558 0  323455.6100285493 5972402.215053552 0  405920.1480513444 5960655.804687951 0  323455.6100285493 5960655.804687951 0  405920.1480513444 6007641.446150355 0  323455.6100285493 5984148.625419153 0  405920.1480513444 6042880.677247159 0  346648.7613474604 5960023.05127712 0  342415.3891593561 5966358.988213831 0  350507.6510228226 5971111.740321856 0  391773.9667214506 5994456.117700323 0  338875.8905424621 6026088.827345025 0  361429.1735454847 6010511.262533597 0  389395.7028803263 6025805.543023561 0  392895.6464692951 6043315.288173481 0  332846.8296575367 6019296.633131165 0  373337.4404588729 6009693.515402478 0  336544.3064612215 6043648.151399015 0  348610.2411382072 6019567.839754772 0  381943.4597763228 6042183.394750732 0  355630.0631288611 6028071.82801846 0  363941.5238882306 6035967.852698964 0  328179.67203552 6022271.326978176 0  401066.2857736665 5998807.415073814 0  344387.1099621175 6029612.545574771 0  393435.2235156003 5960233.556458537 0  400735.9970493424 6022675.638064924 0  393708.5772019727 6029179.837160029 0  400609.0696943338 5987857.851798974 0  361753.6614662939 6001152.171757337 0  400766.1144249197 6048753.88242996 0  353363.0524357285 6002630.165620538 0  343248.328463803 6018790.640008039 0  356419.8105951758 6043365.392189237 0  390234.385899412 6000759.497967276 0  368336.1168551637 6000220.532318851 0  328609.6436549741 5954782.59950515 0  387520.8298169724 6035372.992507171 0  400588.0280660195 6035823.299583429 0  329021.6598427091 6043194.252697862 0  393371.710206733 5983576.325812268 0  393638.9721728675 5973623.513063556 0  371727.9212466564 6017113.044457142 0  364687.2762977295 5959941.212693035 0  374995.9462927962 5960346.83186599 0  369841.9126663716 5954782.59950515 0  400766.1144249197 5954782.59950515 0  338917.7109078234 5954782.59950515 0  369841.9126663716 6048753.88242996 0  359533.8454135222 5954782.59950515 0  390458.0471720704 6048753.88242996 0  338917.7109078234 6048753.88242996 0  390458.0471720704 5954782.59950515 0  359533.8454135222 6048753.88242996 0  380149.979919221 5954782.59950515 0  349225.7781606728 6048753.88242996 0  339867.4956514095 6005339.817053361 0  333737.9460226952 6002130.523287664 0  336955.8140048417 6012008.440073739 0  377097.8989316926 6023232.32559834 0  371748.9790486701 6028016.629988787 0  338146.5171983215 5993298.164761053 0  355016.8390227688 6017610.913088997 0  393953.1528190996 6018968.416019509 0  335185.8133477239 5965142.63403323 0  328616.6041642396 5967263.80307608 0  380314.9487662361 5965460.362415641 0  354622.8993466098 6032976.142863722 0  328521.4725131759 6027215.026914048 0  334465.0783479523 6034070.534389696 0  328123.6212682287 6009699.206425843 0  381889.5169855529 5973936.741901617 0  359122.3484437474 6036790.002992895 0  386341.6533148278 5979963.279841923 0  400798.2159679119 6012477.871311778 0  388538.3765260249 5967461.292146791 0  340833.8784183678 5975728.708105717 0  355307.6239213505 5988552.151815021 0  362181.4274823388 5981261.937800813 0  353784.0322742948 5981044.538811012 0  358045.1698423899 5978741.391518688 0  328423.7350325213 6036912.015930048 0  366897.6876966125 6027277.723668203 0  347355.1745641421 5978532.307510624 0  376820.5060332146 5979033.270735624 0  349378.1778589479 6024378.632814493 0  327189.2282939323 6016451.253924556 0  338433.8773236172 6036753.902881841 0  350141.9760340559 5987605.90026687 0  363794.7083927878 5991713.491814731 0  350325.1285660182 6035273.515460094 0  382355.9358007369 5983507.499638396 0  327107.0747437811 59811
[...]
<PointData  Scalars="f_58-1"> 
<DataArray  type="Float64"  Name="f_58-1"  format="ascii">7.1847169223136936e-24  -1.2526796801385985e-23  2.4163518689260148e-18  2.6210362279409778e-23  -4.6748675329042855e-13  6.0933759729064255e-17  3.6431249368561007e-17  -4.6649878669270161e-18  5.4472639536085653e-03  -5.1377783347315740e-20  8.6250686876566253e-12  3.9160628768635763e-13  2.3147382407408569e-19  -1.4747159147056709e-12  2.4051204232346879e-20  3.8775163054955388e-16  1.8486443866890668e-16  1.9421932694518437e-12  2.6115370325729612e-07  3.4123993309720661e-05  4.4635134438743064e-09  -2.3472119076596909e-20  2.5805168075712323e-21  -2.0407517304033672e-13  5.4382148275291729e-18  -2.4440063028506464e-06  7.5110631035105273e-13  1.0831900366892248e-07  1.3608988174309614e-13  -5.6588170791614370e-17  -6.2972278908477159e-13  -1.9668252555625653e-19  -8.1867301334852543e-18  5.6064160280901000e-12  2.1832683265794335e-14  -2.5593514771739196e-14  -1.3184242275352167e-07  7.7951985985044506e-08  -6.4147404153887266e-04  1.3385765062498852e-09  1.3965732750520085e-05  3.0158268854739724e-14  -1.8880961187005435e-21  4.0393854573971779e-20  7.7946997100403556e-16  -4.0925677843285413e-20  7.1729358557250301e-23  2.2241313929257698e-12  -2.4542222862313707e-17  -3.9682694422801224e-13  4.3682768044859309e-17  6.7587632799724709e-14  2.3408199180371784e-14  8.3648109433581988e-10  2.3203930069059957e-07  1.0950017039361918e-02  9.8329357934886388e-08  -4.3162473187096869e-17  2.6626331044563593e-21  -1.0413349695964073e-21  -1.3239375217524810e-18  -7.5532452057927871e-18  1.1670393125745891e-18  5.4806651400238566e-18  5.6502802718873387e-13  -8.6781810235977095e-10  -3.6236959381197349e-10  -3.8212776464951808e-11  3.4580132782967688e-08  1.0707236058724241e-09  8.3824107095105110e-16  1.3677962773784301e-09  -8.1488205372230964e-11  2.6508601468032148e-16  1.2277868357316855e-10  7.4387876878089123e-11  2.9685019368762047e-13  1.0961192978606041e-20  5.0434521825707158e-13  4.7358321977968220e-16  -1.8510579415264764e-18  -1.6435430293951120e-04  3.8742681314438740e-13  -2.4498610766470781e-08  6.7859390129528403e-13  4.3619881676807614e-20  -1.5833082642602730e-18  2.3192549708824757e-16  -3.1268396124894266e-21  2.5279790981896996e-13  7.7105165980033268e-18  6.9700422452201395e-14  3.5907231536278102e-18  -6.0511033703483594e-13  -2.5345962126551826e-14  4.2975061474404670e-12  -3.8639271058886681e-03  -1.2622521556525696e-15  -2.6242280949681215e-19  1.5733071203594464e-16  -2.0529053582086899e-10  3.4361908239566853e-05  -4.6532133834121655e-07  1.6263480464284204e-18  -5.3889237119689589e-16  7.3465750847606928e-11  -9.7560030455950644e-16  3.5459321130236425e-12  -2.8006049951217133e-18  9.2336496032260802e-14  -3.4001513653750996e-16  -9.9514063811448896e-17  1.5349995856124113e-09  1.4901934499620153e-11  1.8251321115440352e-14  -9.4064339963281429e-05  -2.5433650091476468e-06  3.2051734960767649e-17  4.4297491311659735e-08  1.3579108129322197e+00  6.5681324320298607e-12  -1.4510242143567110e-03  -1.5496867202667318e-06  3.9931506281725547e-09  -2.2611594183894023e-08  1.5762076087687511e-18  1.7477047043513205e-11  -1.3932541883988504e-09  1.5574199801573675e-16  -1.2097434026933961e-21  7.8235574584196123e-14  4.5230830177277559e-08  -2.8562871518371235e-17  3.1425438939677320e-14  5.2184149462398963e-15  -9.7456982603703032e-19  1.0572350625134470e-17  -1.5689156524266841e-15  -6.2379197347350463e-09  -9.1918172902295574e-11  -1.2195801456134973e-11  4.9952470331125748e-06  -8.7085594531791510e-09  -4.5272049754278823e-19  -2.7164932751246704e-17  1.6011099952897463e-05  9.9588069796533320e-09  2.8487805465009604e-12  1.3232195061780322e-14  -3.7383068017775391e-16  1.8239913120595185e-10  1.7797397546660188e-07  -3.9412112111664912e-24  1.6027602329985201e-04  5.5153409826212366e-18  7.1644513390472340e-08  2.4102451036968190e-11  4.6113743848954130e-16  -6.6650895567499091e-21  9.4249580102239531e-14  4.7850534580248888e-18  9.5453520539392053e-20  2.0104893514893057e-17  -5.2139404071234168e-23  3.4953120681872016e-13  -2.2801787109402857e-18  -4.2435127152475701e-21  -4.8162895665276454e-19  -2.4181455541786384e-17  4.4760514464878924e-14  3.8581255007210810e-06  2.2273795821659594e-16  1.7593590560795904e-06  1.3713756989429802e-13  -3.2253861742639758e-19  -5.4606157681102975e-16  7.5359672715543076e-06  1.8222511751424123e-20  3.0066178904978542e-11  -1.2613301815211454e-17  2.5539858455770270e-12  -1.1858937493841664e-15  -8.3772433163563875e-18  2.5122500443811842e-12  -2.0279776752694140e-15  3.3814840572484137e-14  -1.3161177734456855e-15  -6.9491691712410484e-16  -3.0127964424524069e-12  1.0204544042542655e-02  -1.5277877365567652e-21  5.8262838592009946e-06  4.6446617734135214e-13  1.0728537964667742e-16  -3.5169499624259992e-08  3.4219158593998440e+00  -2.4792525918472659e-22  -3.8934219048585044e-16  -1.3854505336578577e-18  -5.7133964771456566e-22  1.8061003525853364e-09  1.0894046529809009e-10  -1.7112692986845278e-08  -3.6375675443767491e-16  6.3274915441581171e-14  -2.9488445242981105e-17  9.0351353885034514e-18  2.9916817145268584e-20  5.3716378664470828e-18  1.9340217221450482e-17  4.6789045017858132e-20  -5.4560920478522451e-21  -2.0003789985253826e-17  1.9372050579352808e-19  -8.6062031005693418e-17  -1.3626397004738953e-19  1.4417071152500777e-10  6.8806482420075587e-13  6.1392373577996719e-13  -2.0845407098058563e-13  3.0676626520202328e-11  1.8844675530528293e-12  -1.1256156001721281e-10  -4.4469685991530548e-14  -2.0970612478772077e-19  -1.3617227545986452e-20  4.3367385472416904e-13  3.1161172102970412e-13  2.3935993103854855e-18  8.8099704960227342e-19  3.5766287420452859e-16  -6.8151855132603369e-10  2.2360741543337365e-14  -3.0019777900117573e-08  1.6562307277191863e-12  1.2280439023135384e-11  -1.6103769354718876e-16  9.2649209221329181e-08  -3.3625717467690193e-09  3.9264996065809296e-10  9.0348530961717605e-11  3.9799495888193574e-20  6.0230260613138228e-12  6.7246310678803086e-12  -3.8153387347864260e-08  2.5523851319820044e-12  1.0794181964809407e-17  7.3118375360871523e-19  4.4551457030422885e-09  3.3674307993424997e-05  9.9617515255607053e-15  1.0331305836213510e-05  -2.4165872553203352e-18  -3.2866166208767550e-15  -9.9794963751706870e-17  7.0537037461775604e-03  1.0429254454115615e-10  -1.6477079932082124e-11  -1.7810330664617929e-09  -9.6060566925354093e-20  -8.6915760726110843e-17  1.4553211993172535e-13  3.8957290990474618e-19  -5.4941734825701586e-18  -1.1428797794083734e-10  7.5355042878636171e-07  1.7988426235966159e-17  3.1636621746831262e-04  2.4454914720017990e-14  3.3523377008323448e-09  2.4082393892168203e-08  -6.3324913040177198e-03  1.0520952172923811e-09  -4.3788157159884400e-16  2.4903317116114094e-09  1.1866344604641299e-10  2.8508805199200462e-09  1.0896946964874700e-09  -3.9363538634808572e-07  -5.7759281089204285e-13  2.1732119841401147e-11  4.7312961918066526e-11  1.9802994908785360e-07  -1.3844931634983812e-06  1.9063567776797627e-04  -3.6221469868723711e-18  1.3979647891672309e-10  -9.4268122189581154e-20  -3.3808582395503984e-16  9.7737664070479398e-10  3.6810597462466978e-12  1.0215141731640614e-10  2.6705257417123807e-19  1.4983526282609290e-12  1.3754961294878739e-13  1.3849782896047814e-03  3.5310050911641442e-16  1.9508341795500117e-20  5.2113489356155292e-19  1.3637573843514907e-06  -2.2499083553675637e-16  -6.8989653350213310e-15  1.4090868871461508e-18  1.5201141780019405e-12  -4.4911558243416115e-21  -7.5047747483247396e-21  3.3371011966847954e-22  -1.1641485421520349e-03  9.2477259060781268e-18  9.0323202563464099e-05  -1.9671827260663125e-17  -3.0944780507417184e-21  -4.5143413669077065e-17  5.6269957954613433e-13  7.2059451653101858e-14  -2.1865586256000719e-15  1.7896045631352720e-11  -1.5946222931615749e-14  -2.4889377469551187e-17  3.2950823756265491e-16  1.0697322320026803e-13  1.1968793135033446e-06  1.3714275168425383e-04  3.2238337162226549e-04  2.4622502511877727e-17  4.0300800146214042e-12  1.8510990796768973e-16  -3.3104953827846551e-22  -1.3202513791597484e-20  1.3690988857553929e-12  1.0717970525534791e-12  1.0659165977909019e-12  2.8080964460276340e-14  -3.4926403528407229e-17  -3.8147800943159309e-17  -3.2357205251440867e-17  3.5293149085742438e-04  3.2587916829574705e-12  5.9073309243692751e-14  4.9156527493729327e-09  -9.1616314895531578e-05  3.4983222053650313e-03  1.1630547804817350e-02  -1.6273970792828234e-03  -9.8786537093790430e-17  -1.8658770931014012e-08  1.1879990183036619e-13  1.9261221671580320e-13  -4.0799399836315150e-14  6.0892200093729670e-11  -4.5731946492599859e-23  9.6824894861025496e-21  5.7225208256023720e-09  -4.8972542618629959e-16  3.0205695408301927e-15  3.0911221688244479e-07  7.2278135105752379e-17  4.2890599064588848e-09  4.6269341923230399e-18  8.0396456649388483e-10  2.0757861762730623e-09  5.8091053689784634e-18  5.6160712331390093e-20  4.7287206387696358e-05  -1.3769249117475326e-09  -2.0265471442018976e-14  -1.3125986038434592e-15  2.7841380432832630e-13  9.4690083175783776e-22  2.1928338945247147e-19  -7.8882180591839996e-18  -4.4178193016617042e-05  1.1855505067651799e-10  9.4301025367496768e-17  -3.7614158521026515e-17  -1.2018709274351818e-14  7.3388645513520932e-13  -2.7335283953049314e-18  4.3227708819310818e-17  3.0970914914981803e-08  4.9198209226664255e-08  1.5059677526126346e-14  -9.1169420566233248e-19  -1.3617040764046027e-14  7.7944369245863088e-13  3.7284115662245879e-18  7.3201266592636057e-13  3.3056799379577570e-05  1.7784819694471802e-10  5.0019980715701255e-13  3.0590406468107069e-17  1.0438421868537022e-16  -2.7098721200540107e-20  -1.3451726912452923e-15  9.2755633721252231e-06  9.6719903767298254e-12  4.5889972352879192e-14  3.3628397775833667e-12  1.0996055972650479e-12  -6.4514509883511105e-15  8.3181354905932999e-11  1.9344379831415621e-13  6.8590481761935091e-18  1.0795935644415147e-14  3.0567812871053241e-09  2.0777435894543031e-09  2.6855770014909091e-09  2.4962389631926661e-08  5.2793236569339382e-07  -1.1204641563509454e-11  1.0207827578430649e-09  4.8643859830674194e-16  -1.1081193991516748e-15  6.4034305505703433e-06  -4.2666509033178896e-20  2.7467303180842052e-06  4.1091752871024418e+00  -5.0340136381231053e-20  9.8675372943988127e-17  1.1529502033899707e-07  1.2431961254649367e-12  3.6017750113687012e-06  -5.6790935037371922e-16  -5.9954703726653800e-19  -7.7534632597246703e-19  1.4862756122123395e-18  -2.1814862943310551e-17  1.7284323816491044e-10  2.9993358849116402e-10  3.7073880778893728e-13  2.8661983474536128e-12  -8.4242037160922422e-19  -1.9375873146093775e-08  8.3130237221927718e-09  3.2940495973768927e-07  3.8043722567616547e-11  -1.1902995695827241e-15  4.5198341438715324e-11  2.1213759961132021e-07  1.5905755867721719e-08  -9.3392947662667638e-08  -3.5430727831707553e-12  1.0737893902218627e-11  -1.0901692560622955e-03  3.4215243178508620e-20  1.6836353571743196e-11  2.0338443272087340e-11  1.7386934054399127e-09  -1.2882575461141469e-15  1.2459822112253207e-13  -3.5246918798445421e-18  3.4870017418127519e-01  3.2507262694807300e-07  -2.6761740385019144e-15  -7.7522301990322757e-10  -1.6343990884588365e-12  -3.5725575773352459e-18  -9.7484046503688594e-11  1.0970401513174856e-13  1.6360110990140299e-08  1.6748493737357245e-16  -8.3190256523579432e-17  2.1721863938371403e-14  2.7267418179151940e-12  -1.1448148584175860e-19  3.9980097972523742e-13  2.7965246026457885e-17  1.9146225532177043e-12  -2.0760993536615049e-12  -1.8377912634431329e-10  -1.2190617134379269e-16  4.0578949608543708e-10  -5.2317281901723840e-13  -7.2754766851568814e-20  7.4719873423639310e-02  8.2439509392259960e-17  1.6487451601154691e-11  3.1076607985217080e-13  -4.4750647984455986e-10  -8.9072878461021958e-09  6.8370327314508407e-18  1.2464485824426964e-10  -1.1151831256963649e-04  2.5971627587333427e-15  3.6201937724698043e-12  2.2027438830972722e-18  1.3697461429686147e-13  -4.3265002412315539e-17  6.0131739476472964e-15  7.3404759531076864e-06  1.0883262928506590e+00  3.2291227372452549e-12  -3.4870806162420201e-13  4.6633903547637882e-21  3.6990144572788245e-11  3.5504576041646087e-11  1.2812327121149231e-07  3.2640656824295975e-17  4.2394934774467037e-16  4.5276906148437248e-17  6.5391352062489069e-09  1.2684814530971355e-19  3.2044792660096570e-19  -2.7628353698758395e-19  3.8299637674777804e-18  -1.5559684872249478e-10  4.0227703299768306e-07  -7.9520019423854514e-10  2.9369834894895269e-17  4.0159575802943880e-09  1.0866251365967707e-14  2.2381393928031880e-09  2.8477664856120012e-16  5.4266884848637062e-06  3.8891348832996280e-08  6.3515055750626380e-10  1.2157000926322670e-11  4.7988189449534905e-11  3.7030353027571678e-11  1.5443613762014490e-02  3.7070612022399514e-04  1.5013753630047324e-05  5.8231226931457313e-10  1.2027187295150029e-16  5.4898993019420741e-04  -9.9876478754883352e-18  -7.8661209163153478e-19  -4.8810503874159625e-17  4.1230732624541373e-18  -1.5201989458199372e-16  -7.9283247738768815e-16  -1.4123017746773447e-21  8.0299962327356270e-08  1.3042829506334363e-17  -1.6661254472102111e-19  5.6834602022570535e-19  -4.6127670443231604e-16  9.2212404745447932e-16  1.9379818892745551e-10  -3.4216846867544261e-23  8.9844405294321856e-23  9.5976638065421845e-17  -1.2450340348150711e-23  4.1423867540614414e-07  9.0369313237579198e-07  3.1976023613820069e-06  -3.0729586388940769e-06  -5.8451149134983216e-16  -3.1506663598696978e-07  -1.3912300597823956e-20  -4.3261698035563244e-10  2.3841910247703504e-14  8.6900391807481137e-13  -2.5397000086013488e-13  3.3909811135199005e-13  2.5959210264409082e-08  1.1346840346383419e-20  -3.3828242074589624e-21  5.9728169885781485e-19  4.5787887409420731e-19  1.2133490252252974e-16  5.4625966491948305e-14  2.8137194432670665e-09  -2.0678070690825722e-12  -1.6582777710511869e-19  -8.4914776524088115e-11  4.0661568287474336e-11  3.7465749267716743e-10  8.0781554469014391e-06  9.7689547250428767e-12  1.7394342855297536e-18  -2.4850645225561218e-17  7.5940085563575846e-18  1.6509232711846198e-14  4.8604735885737122e-14  9.9977237080242235e-17  2.6483016130046575e-18  -1.7144695431275206e-15  1.5553923359515185e-13  8.3031099362588402e-14  -8.6749764985150822e-18  6.1156412473785793e-01  -2.6838561777700929e-04  7.2292581647622289e-10  -6.5176859305862682e-20  7.7480696270180087e-18  -5.3646490204472547e-17  -7.1735742546280939e-17  -1.1493234093799073e-21  3.6945603944480773e-17  1.0411105610165610e-21  -2.2180993755570188e-05  2.1333436429370992e-03  1.8188268540304048e-14  4.2942152352921160e-13  1.8731472329517159e-12  8.4454535791275935e-18  1.9036433442302716e-19  4.5218436396492514e-13  7.9993038645440826e-08  2.3322740980353926e-09  -3.5844568899377406e-07  1.5472502134129828e-12  -4.7473715056469202e-08  4.9030093535880055e-04  3.0925449616587353e-03  -8.1013649055493707e-14  9.3341484875092964e-14  4.4474594062658974e-14  -1.9632842625413697e-15  7.0245440396623538e-17  5.0273202986124036e-19  -3.7801657114311089e-15  1.0370824970192838e-18  4.0246832438274002e-21  4.4569617089008292e-14  -3.2870540585670335e-17  -1.1529194235975282e-16  3.4891943696357376e-22  3.0888725963322947e-20  -1.2710223031720465e-13  2.1273292640875986e-19  1.4669723734803385e-12  -1.4576984959786183e-15  2.0014009988857430e-14  -3.5922326774527204e-16  -4.7500651494710921e-09  1.1867150787043557e-11  7.3903803265684535e-11  8.5850518468755218e-13  -1.8528009462183551e-19  1.1799364727607657e-19  -2.0872230746027571e-18  3.1667793718375914e-21  2.1460786609422567e-19  -9.0552242479768738e-21  1.1693317860699924e-12  5.3122150142718839e-10  -1.9400699395664245e-16  3.2968625908334044e-16  8.3603009109860457e-10  1.5411312753324526e-09  4.5750333994989110e-13  2.5338608228440328e-12  1.3823929546323988e-10  -3.3473118707905034e-12  2.1260152129274205e-12  -9.1240710249947018e-16  -1.1101326568611248e-17  -5.6539841211660371e-16  4.8594962833207031e-14  -7.7324211460167576e-16  3.0293407708908201e-17  1.1142075259621969e-04  2.8845852183953485e-12  4.7158440117342398e-18  1.4361358146638663e-07  4.2436697463723299e-13  2.5566239036466051e-13  1.5932710037660298e-14  8.8258165388276041e-11  5.4008803000886556e-03  -1.6048143379898799e-22  1.5031899672148831e-22  -2.8899936356734355e-08  -4.7763689564231110e-21  6.5689044238290977e-18  3.1508289103625363e-04  -4.3041638378293334e-03  1.8068253408018370e-03  4.1898076394263926e-19  2.3383406867222182e-16  1.2412426181064909e-02  7.6167838781735560e-10  5.2033206332011170e-19  5.7939112289153187e-03  -2.6400762125335061e-17  7.4058816675469769e-22  -2.8439126433756516e-14  7.3706916675750778e-20  6.7350548821321654e-17  3.8205193431886792e-11  6.4354049135862019e-19  -2.8901419659458058e-12  2.1189593921827061e-19  1.1314099057267717e-04  1.6186810168958992e-11  2.0869612168747997e-02  7.1767004831423753e-10  -7.1189585393280754e-17  5.7833605105528177e-05  3.0322768838633615e-14  1.5531194741283594e-11  8.4290976405358949e-19  1.2712177234945435e-13  6.1624133542174362e-18  2.5272381538645658e-19  -1.4550774243474771e-11  6.2420008793128696e-11  1.5333550336680918e-18  2.4200859412422627e-11  2.9668651440203709e-07  8.5826357069496434e-08  4.6493719538258988e-06  -5.5949226954979556e-17  1.1458994792155272e-14  1.9873626792871659e-11  -4.6668356091049271e-13  -1.9328711566484144e-06  3.4029340291569832e-16  -2.7769219980654275e-17  1.8664017362615333e-17  3.8092754475694679e-16  1.3660355807496122e-13  -1.6372729759017372e-17  1.3615940024326046e-17  8.3185667430023946e-01  -5.2295163053422780e-05  2.4743001386492902e-06  -5.8799544233441084e-07  4.4133622249037489e-09  2.2526859081762025e-06  1.8844978854786638e-07  1.9179659412028062e-11  -3.5288586055250893e-14  3.1309842736324602e-06  1.4033152118542636e-19  1.2043441113635658e-11  3.9144332650396315e-17  1.0628763730077737e-08  7.0554197893256585e-09  1.5076812563549859e-08  5.5639513353120412e-07  -4.4552337908111135e-18  -2.7001084422914826e-18  6.8781883811487297e-10  -6.2759074585301147e-13  5.9377756750958818e-13  -2.7761871551098342e-19  -2.2993187967921842e-16  3.9211168965102715e-09  -2.2938132520819422e-10  -3.9530276646617611e-18  -4.3772059983713854e-18  -1.0575539797757721e-16  5.6539394007767677e-11  -4.2152616950396209e-12  -7.4931479482353817e-13  2.8232813399337872e-11  2.9558604965260155e-09  2.4295300454025147e-11  -5.2991885889260546e-08  2.8926246452513273e-21  4.0584083089892635e-19  1.6351899516706505e-18  8.9827523522552049e-15  1.0781776635817051e-13  1.7181930876510040e-19  -2.9663935343060271e-21  1.0964240810281306e-21  1.6720268240960740e-19  2.5850304484160701e-12  1.3119337307922606e-11  1.9046425719022273e-13  1.6730859315949838e-10  -6.0752881980840676e-10  1.9718532422507844e-09  6.0000593742518547e-17  3.3666230273246363e-09  1.6462951813516111e-14  6.7362892863747936e-08  -2.8990506742963468e-19  4.9970634577921122e-16  5.2726409478445366e-17  4.6393129144242140e-14  5.1173887916123360e-16  7.9186465606181972e-15  -5.4563993431883855e-14  6.2964706280645312e-13  8.5049534207923683e-13  7.3353200114819671e-13  5.2820129809229664e-11  1.7221589735711151e-20  1.3969767106754859e-23  6.2418546606036661e-18  6.4359981976537236e-17  9.5466881698126441e-22  3.1350026257350883e-19  -3.3437968082969790e-20  2.1622965557138686e-18  1.2567674039592947e-17  5.3705885347348969e-17  5.0376922521491484e-18  -4.9243863780368095e-18  2.9386979558995412e-17  1.7571966972087116e-23  5.3476141873578406e-20  2.2783723937198952e-22  -1.7128975075035954e-21  4.2111139629696140e-19  -1.4241664289725493e-03  -1.8791853903699100e-10  -2.4501912989405497e-10  1.1231603869238558e-10  2.0910070216191377e-19  4.0120527217212948e-18  -2.1995154925586276e-18  -1.9470457386116495e-21  4.5909756367152674e-07  3.1841094062983216e-13  -2.3816149576719395e-18  -2.1877611684236000e-07  3.5090363948593695e-20  -2.6732089207405478e-11  5.5138862790160464e-14  -1.5313387819878765e-09  2.8445962891397990e-17  -3.4824692231563618e