<?xml version="1.0"?>
<VTKFile type="UnstructuredGrid"  version="0.1"  >
<UnstructuredGrid>
<Piece  NumberOfPoints="3002" NumberOfCells="5870">
<Points>
<DataArray  type="Float64"  NumberOfComponents="3"  format="ascii">323455.6100285493 6048753.88242996 0  323455.6100285493 5954782.59950515 0  405920.1480513444 5954782.59950515 0  405920.1480513444 6048753.88242996 0  405920.1480513444 6001768.240967555 0  323455.6100285493 6001768.240967555 0  364687.8790399469 5954782.59950515 0  364687.8790399469 6048753.88242996 0  364687.8790399469 5996367.117560402 0  323455.6100285493 6025261.061698757 0  382226.6271443229 6022560.499995181 0  405920.1480513444 5978275.420236353 0  323455.6100285493 5978275.420236353 0  353897.8957397301 6022560.499995181 0  344071.7445342481 5954782.59950515 0  385304.0135456456 5954782.59950515 0  405920.1480513444 6025261.061698757 0  354379.8117870975 5975574.858532775 0  381582.8168806895 5978840.396198289 0  384950.2598624413 6001768.240967555 0  344643.0480768835 6003429.02033719 0  344071.7445342481 6048753.88242996 0  385304.0135456456 6048753.88242996 0  339717.0321562298 5986078.187627405 0  337515.036058786 5969821.016310448 0  368062.2614420265 6013076.224998265 0  368062.2614420265 6032044.774992097 0  393987.6142659165 5988729.699941677 0  405920.1480513444 6013514.651333156 0  392856.2821527076 6034589.119828064 0  393514.9611654527 5968369.338068204 0  339399.8087404341 6032061.482581838 0  323455.6100285493 6013514.651333156 0  374995.9462927963 5965504.865595459 0  354379.8117870975 6037976.901948514 0  338123.9088969378 6017031.529131207 0  367397.3120126425 5982072.559192053 0  351882.5752379905 5991998.990225234 0  376945.425450199 5991232.708824487 0  392265.0061656896 6013300.936254065 0  357029.7426706699 6006608.947964352 0  380093.6207558212 6036880.127749795 0  323455.6100285493 5966529.009870751 0  405920.1480513444 6037007.472064359 0  405920.1480513444 5966529.009870751 0  323455.6100285493 6037007.472064359 0  333763.6772813987 6048753.88242996 0  405920.1480513444 5990021.830601954 0  323455.6100285493 5990021.830601954 0  362879.3643765316 5966837.319094267 0  348367.6438548031 5965604.161682394 0  334493.1989038612 5996935.948935225 0  395068.5043068817 6023875.372615605 0  348216.0324377587 6013504.844950221 0  379305.9090074943 6011603.390019651 0  372523.5158233726 6003480.000732267 0  395435.2039568929 5999384.346358113 0  395612.080798495 5954782.59950515 0  333763.6772813987 5954782.59950515 0  395612.080798495 6048753.88242996 0  374995.9462927963 6048753.88242996 0  374995.9462927963 5954782.59950515 0  354379.8117870975 6048753.88242996 0  354379.8117870975 5954782.59950515 0  335074.5981535012 6007206.680367459 0  391925.2695590468 5978591.908877409 0  371969.1707190623 6022560.499995181 0  383872.162544519 5969415.106147043 0  358038.7139835292 5984533.09712744 0  369699.869182786 5973102.2359358 0  369841.9126663716 6041099.453006387 0  343176.7440329155 5994428.220622956 0  362933.5332293962 6024385.235173292 0  330640.1760208776 5984148.625419154 0  348684.7494355051 5983110.856817525 0  399094.9690929834 6007537.420809742 0  345447.6324516311 5974162.84917082 0  332859.7749513451 6039150.972778062 0  344517.044630671 6024057.945416138 0  332973.1214415312 6025037.914505113 0  341428.0126373461 6040493.820728126 0  385874.264691618 5992757.40885039 0  350337.3662538711 6030387.535304286 0  359887.2373602368 6016186.250094838 0  377097.8989316926 6029115.217702097 0  338917.7109078235 5961484.016839475 0  329495.5261590715 5972402.215053552 0  336644.7280634616 5978216.610794215 0  330688.6715098422 5962480.256438018 0  359899.8039476132 6031963.415584587 0  399746.255941904 6030426.523907755 0  385511.6875144855 6030368.508996127 0  387377.735783329 6040763.821024337 0  398832.192399829 5974431.100387635 0  387992.9498994246 5962432.032572681 0  405920.1480513444 5984148.625419153 0  364925.7641745284 6005782.953640081 0  361769.877068089 6041226.651684469 0  398452.9199001931 6040850.732439541 0  398946.6205243983 5962252.502309519 0  362305.5577564609 5975984.89789681 0  356822.8065216601 5998470.186307689 0  386900.7115926162 5984820.732438302 0  329528.0119279922 6032067.230024892 0  331139.6939744562 6013813.572928222 0  398457.5876798834 5982541.698799337 0  405920.1480513444 6019387.856515957 0  398685.5166750694 6017257.578706384 0  348587.9424884976 6042755.309150081 0  369841.9126663716 5960143.732550304 0  380149.979919221 5960143.732550304 0  359533.8454135222 5960172.384722514 0  377147.8814772839 5972649.581024994 0  341756.3455763521 6010124.092444684 0  355615.8176864882 5966311.193813809 0  369144.4338274571 5989807.770003954 0  375185.9047422862 5983510.422041401 0  323455.6100285493 6007641.446150355 0  391856.7960121195 6005888.565703365 0  371978.0245217044 5996361.134308098 0  405920.1480513444 5995895.035784755 0  378877.1880032702 5998073.745937059 0  359056.6617417652 5991643.489540118 0  399278.8743430426 5993436.466134224 0  386116.8775939071 6009922.097099247 0  323455.6100285493 6019387.856515957 0  388994.7833819839 6019826.789191471 0  348897.6207366391 5998116.079250046 0  345456.3301153719 6035064.814295612 0  323455.6100285493 6042880.677247159 0  334124.3013408988 5990072.953472659 0  377097.8989316926 6018059.782440464 0  323455.6100285493 5995895.035784755 0  342871.8474798963 5980154.238874755 0  373596.9793292385 6035659.183886081 0  380149.979919221 6048753.88242996 0  376327.9292813152 6042294.581731233 0  329163.3548105369 6004704.843558955 0  350303.9432136903 6007093.032074522 0  383982.6552804571 6015912.664375832 0  345515.490569988 5988567.439252969 0  379019.812877927 6004678.052169549 0  365541.9137639466 6018750.691894444 0  349225.7781606728 5954782.59950515 0  352493.3399767278 5960815.406895458 0  363683.8130458911 5986976.225872464 0  386666.791301207 5975084.583584332 0  368937.6553346639 5966171.092344863 0  400003.9882214358 5968352.273777306 0  328776.0063842635 5992958.433193355 0  339958.4428758043 5999572.344589042 0  354577.7732363954 6012555.454074449 0  328609.6436549741 6048753.88242996 0  382053.0280278458 5988228.496807038 0  330708.6817934912 5978212.973348036 0  372084.7734679543 5978495.086505585 0  358568.2738174705 5971419.415228934 0  328931.2672829705 5998832.905089681 0  323455.6100285493 6031134.266881558 0  405920.1480513444 5972402.215053552 0  405920.1480513444 6031134.266881558 0  323455.6100285493 5972402.215053552 0  405920.1480513444 5960655.804687951 0  323455.6100285493 5960655.804687951 0  405920.1480513444 6007641.446150355 0  323455.6100285493 5984148.625419153 0  405920.1480513444 6042880.677247159 0  346648.7613474604 5960023.05127712 0  342415.3891593561 5966358.988213831 0  350507.6510228226 5971111.740321856 0  391773.9667214506 5994456.117700323 0  338875.8905424621 6026088.827345025 0  361429.1735454847 6010511.262533597 0  389395.7028803263 6025805.543023561 0  392895.6464692951 6043315.288173481 0  332846.8296575367 6019296.633131165 0  373337.4404588729 6009693.515402478 0  336544.3064612215 6043648.151399015 0  348610.2411382072 6019567.839754772 0  381943.4597763228 6042183.394750732 0  355630.0631288611 6028071.82801846 0  363941.5238882306 6035967.852698964 0  328179.67203552 6022271.326978176 0  401066.2857736665 5998807.415073814 0  344387.1099621175 6029612.545574771 0  393435.2235156003 5960233.556458537 0  400735.9970493424 6022675.638064924 0  393708.5772019727 6029179.837160029 0  400609.0696943338 5987857.851798974 0  361753.6614662939 6001152.171757337 0  400766.1144249197 6048753.88242996 0  353363.0524357285 6002630.165620538 0  343248.328463803 6018790.640008039 0  356419.8105951758 6043365.392189237 0  390234.385899412 6000759.497967276 0  368336.1168551637 6000220.532318851 0  328609.6436549741 5954782.59950515 0  387520.8298169724 6035372.992507171 0  400588.0280660195 6035823.299583429 0  329021.6598427091 6043194.252697862 0  393371.710206733 5983576.325812268 0  393638.9721728675 5973623.513063556 0  371727.9212466564 6017113.044457142 0  364687.2762977295 5959941.212693035 0  374995.9462927962 5960346.83186599 0  369841.9126663716 5954782.59950515 0  400766.1144249197 5954782.59950515 0  338917.7109078234 5954782.59950515 0  369841.9126663716 6048753.88242996 0  359533.8454135222 5954782.59950515 0  390458.0471720704 6048753.88242996 0  338917.7109078234 6048753.88242996 0  390458.0471720704 5954782.59950515 0  359533.8454135222 6048753.88242996 0  380149.979919221 5954782.59950515 0  349225.7781606728 6048753.88242996 0  339867.4956514095 6005339.817053361 0  333737.9460226952 6002130.523287664 0  336955.8140048417 6012008.440073739 0  377097.8989316926 6023232.32559834 0  371748.9790486701 6028016.629988787 0  338146.5171983215 5993298.164761053 0  355016.8390227688 6017610.913088997 0  393953.1528190996 6018968.416019509 0  335185.8133477239 5965142.63403323 0  328616.6041642396 5967263.80307608 0  380314.9487662361 5965460.362415641 0  354622.8993466098 6032976.142863722 0  328521.4725131759 6027215.026914048 0  334465.0783479523 6034070.534389696 0  328123.6212682287 6009699.206425843 0  381889.5169855529 5973936.741901617 0  359122.3484437474 6036790.002992895 0  386341.6533148278 5979963.279841923 0  400798.2159679119 6012477.871311778 0  388538.3765260249 5967461.292146791 0  340833.8784183678 5975728.708105717 0  355307.6239213505 5988552.151815021 0  362181.4274823388 5981261.937800813 0  353784.0322742948 5981044.538811012 0  358045.1698423899 5978741.391518688 0  328423.7350325213 6036912.015930048 0  366897.6876966125 6027277.723668203 0  347355.1745641421 5978532.307510624 0  376820.5060332146 5979033.270735624 0  349378.1778589479 6024378.632814493 0  327189.2282939323 6016451.253924556 0  338433.8773236172 6036753.902881841 0  350141.9760340559 5987605.90026687 0  363794.7083927878 5991713.491814731 0  350325.1285660182 6035273.515460094 0  382355.9358007369 5983507.499638396 0  327107.0747437811 59811
[...]
<PointData  Scalars="f_3058-1"> 
<DataArray  type="Float64"  Name="f_3058-1"  format="ascii">-4.3261357762495420e-23  1.9382019206929166e-22  1.7045152138654970e-19  3.2933494758193065e-22  -1.5924616390483539e-13  2.1645784080356051e-17  -1.2341763480539139e-17  -9.0921593812592242e-18  1.4985292232369565e-04  -8.5578189070173233e-21  6.1363039120426174e-11  2.2566091716115785e-13  -7.8310243999536268e-20  -3.1138041346792695e-11  -1.3324430368093127e-20  -3.5409232194025095e-17  4.1103315154039303e-17  1.7634315116167620e-13  -2.9543644115133008e-08  1.4788933426833982e-05  3.1262794556922710e-09  1.3576097741955248e-20  -3.7159542808852687e-19  2.7698505181022372e-13  4.5717966348310659e-18  -4.1073666251743171e-06  -3.7879488040854829e-13  5.0237638359685355e-08  1.2857402745755443e-14  -5.4243882656345608e-18  3.5422350537719662e-12  -1.7135804143383471e-18  -2.1279295740922963e-18  7.8691568712002418e-13  2.1385717505537326e-14  2.0199985387616283e-13  -1.0431400118188678e-07  -3.1459724270313777e-09  -2.8121595304186255e-03  7.2631089094115429e-10  9.3170008078950023e-07  5.3006547191769949e-14  -6.6496409635832860e-21  -1.1483047467180265e-19  8.5824513429030896e-16  -8.4502510684377693e-21  2.3715735283777215e-22  4.3821965286267961e-12  5.1502965917024383e-19  -4.0243558404092453e-13  7.3876554908403347e-17  -9.3659305577912362e-15  -1.3054600002483043e-15  2.5646914761728270e-10  2.4943485183615943e-07  9.6933292490014719e-04  5.9804005836687011e-08  3.3498552730296346e-17  7.5195876734878160e-21  3.0278985236387189e-22  -6.3845755994089259e-19  -8.1750128380733235e-17  8.8747492003793746e-19  -9.2950328786775464e-19  1.8293053262920976e-13  8.4715792283789956e-10  2.0300422083023328e-09  1.6546260842954054e-10  2.9233939465371277e-09  2.8007640214551168e-10  6.3673350521743268e-17  -3.2182541695474581e-11  -4.0219206718790087e-10  1.6180377200615976e-18  -6.6440971187968553e-12  -3.6717098971651336e-12  -9.1555587488625953e-15  -9.2004100712446912e-21  8.7853810830324426e-14  9.5810531689325883e-17  -4.7225631254991166e-19  -6.9126965740061043e-05  -4.9059414518155251e-14  -3.2057668087928070e-08  2.2685806176551786e-12  -4.2588927406589022e-19  -8.5980874112158064e-19  -2.3805607200866122e-16  -1.4846967019323577e-20  -1.7451707885702155e-13  1.7825735336570752e-17  8.6444417700228871e-13  3.7278942128492475e-18  9.9699751095914576e-13  1.7767359001773426e-13  4.2334631822674790e-12  -1.8610806131834259e-03  -1.1309650652534930e-15  -2.1672457350427261e-20  -5.1306373498608914e-17  -4.6957766234528561e-10  -2.2034215834755666e-06  2.3843594687524981e-06  2.2275201258337954e-19  1.1228761070179880e-16  9.0026251798705950e-12  6.7134411691432967e-17  2.6054838856707981e-12  2.5777070088130156e-18  -8.7689480927956696e-15  2.8146719687396470e-14  3.6711111537224557e-17  5.0437249316054381e-12  4.7843624037715091e-11  -7.0967239875945146e-16  -6.9240596773329559e-05  -4.4672594892080697e-06  1.2734153413235036e-17  2.4024731338783508e-08  2.7418032191893843e-01  4.6373182835790933e-12  2.1465104977878499e-03  -6.1688812863594768e-07  2.4042551177021145e-09  -1.6149800773620147e-08  1.3926796883696892e-19  5.5995794655872904e-12  5.9243018349433790e-08  -4.3777346746575185e-17  5.2132112621076625e-22  1.3958723485728611e-13  -4.6504698631220553e-09  -5.0303534136464144e-18  2.7079772320571218e-13  1.1267696886378829e-14  1.7221873854461889e-19  -3.1922550821996878e-17  -9.1314007804876524e-16  -8.8094699426645406e-09  1.7167228972356552e-10  6.6176668432516793e-11  1.9064440777678631e-05  -2.2334140077539207e-08  3.4035558486498239e-19  -2.7090290968644829e-18  6.9860641563885636e-06  -2.8209337780820145e-10  3.2466182581959672e-12  3.5023496625412946e-16  1.1392822339845004e-16  1.7003468565233659e-10  1.2154965641377144e-07  -4.0518341419208908e-23  -1.2331008622536892e-04  6.2121913665703273e-18  2.0120679151450390e-07  1.9429293149699822e-11  -1.5758739879593787e-16  -6.4742869981497835e-21  3.1253839391609495e-14  9.0620790279475484e-20  -1.5089887421359280e-20  5.3630309641540797e-18  1.1896841747486472e-21  2.9288338131544011e-13  -6.3406058560392251e-19  -7.4581272910408944e-21  5.8966267581902824e-18  -7.3048133562399425e-17  1.4416373136454391e-13  1.7060662948614350e-06  4.0419171700022886e-16  -6.4964890607763401e-07  -7.0262372893065093e-15  -7.2181415818840627e-19  -8.0244368298871847e-17  -6.5986734025051153e-06  4.4556417794658380e-21  -3.6556343768850464e-12  4.8132089440256166e-18  -9.0419906493973780e-13  -1.8656526186829464e-15  -2.7375607528669242e-18  -5.2790877884526154e-12  -1.3848179953849496e-15  -5.8819533333060903e-16  -4.1442590943241809e-16  -9.7075800360654031e-16  -2.5220196972259602e-11  1.9290780914404948e-03  -6.0999055518911241e-22  2.0780803998435303e-06  5.5153389168036676e-12  1.2282271649653991e-16  -1.0017123508635614e-07  1.9354948174645792e+00  2.5364503681775524e-22  -6.5423779066562605e-17  -2.6477553021856115e-18  2.8311413006474576e-22  -6.6222420999245100e-10  8.4113269702407947e-12  1.1599050078991389e-08  -1.4112892486366782e-15  3.3321406024559138e-15  1.4747373319914610e-17  -7.4998698481710543e-19  8.0268235794189703e-20  1.0870949420346113e-18  -3.4307555015661212e-18  1.1888659107766112e-19  -2.6466246575867989e-21  2.4467118404565262e-17  2.2736177465664492e-18  3.0391773700387077e-17  1.4164078544868179e-19  1.3724667634594491e-10  7.5959291650992075e-13  2.5466331699664170e-13  7.5561560036506920e-10  5.3816429484798458e-13  6.4343682415564380e-12  -9.1558635534356144e-10  7.0996679609362070e-13  -4.4799982412336512e-19  -9.0577972308735896e-20  2.4587056703626789e-12  7.0655415662947469e-14  7.9210243102968473e-19  7.7944433762171069e-19  7.2246928774372303e-17  1.1246652638275385e-10  -6.0768245779839539e-15  1.3947400942907693e-07  -5.7332986391048881e-13  6.5673650075724395e-13  -1.5550868142555249e-16  -8.3522697306635101e-09  -6.1119791486788490e-09  3.7004772479741061e-11  -2.2330084498306553e-10  -2.3171673984439807e-22  -1.8584350419712088e-11  -1.9618422575142615e-13  -4.8129027786965711e-08  -1.2026759142423624e-12  1.1732245543956804e-17  -2.9068249643411566e-19  -1.3076008134371537e-10  -1.1625576255529558e-06  7.8555320532472644e-15  -3.7508028629735523e-06  2.6383581471318667e-19  1.1245274797337897e-14  1.8968470210673238e-17  1.2876476759100452e-03  2.6279604633688475e-11  -1.3554351672055214e-11  7.5992325809966974e-10  -1.2286307116523692e-17  -7.4279463575589972e-17  -5.7298228239042020e-15  -1.3249160394053399e-18  -2.3392835141789912e-17  1.4943330326787840e-10  -1.7762993962156951e-07  3.5292501611110517e-18  1.1317885372313946e-04  1.0419232156701944e-14  4.3578724804968686e-09  8.8268661137412960e-08  -2.8682351811190514e-03  1.5135548012544261e-09  -1.4471841428299192e-15  -1.2878652643670608e-10  1.1502932484126511e-10  1.4897334791931058e-09  1.0620792884805549e-09  2.9764461137220841e-07  9.5909387842685814e-13  3.6838517153035731e-11  3.1385263747194835e-12  7.9689728404186520e-08  -1.7514661315464442e-06  3.4108587754326098e-05  -5.4339782797715820e-18  2.1267923968296009e-10  3.5518312246902799e-20  -3.0663989478220873e-16  -1.1561708111461864e-10  1.8293462441015830e-12  6.2061831180754868e-11  6.7712286956747543e-19  1.5847143250586619e-11  1.0242260937656828e-12  9.6566591425722178e-06  1.0406348887113185e-14  -2.9117413902891144e-21  1.3689422977096900e-18  4.2256523401231027e-07  3.0102809820666400e-16  3.6983048764493488e-14  2.1035420613266807e-19  5.5261862434983214e-13  1.7597775615622040e-20  -3.0257259462025848e-21  -1.7567085698928780e-21  1.9980196011819390e-03  9.0402724296087719e-18  -8.0879310034116936e-06  -2.2611357983534370e-17  -3.7829271291337318e-21  2.6925075957550980e-16  4.0905121931174322e-14  1.9249112096767969e-13  -2.9348301108789247e-16  -2.5383155734161092e-11  1.0094460212623862e-13  3.7761106159620910e-16  3.6134643769567433e-17  -8.1207398700786387e-15  -4.9248260986389622e-08  -4.4410108753535423e-06  7.7257955860602471e-05  8.4331101560774027e-18  -9.0612278570338832e-13  -1.5506215764606506e-15  -1.7557328412097862e-21  -7.0001824698129787e-21  1.5486311044690548e-12  1.8593061857909547e-13  8.5674144238066850e-14  -7.2931788709276381e-14  -3.2732566034903045e-17  -2.2025580211342898e-17  -7.3730945595880932e-17  2.4458695709266080e-04  5.6179744383374912e-11  1.1882084786491884e-15  4.5037142178132345e-09  -7.1039908684524214e-05  6.0677976130488838e-04  1.4387140086526997e-03  2.3430513124557341e-03  -1.3175275466411152e-16  9.8825439834129199e-08  9.5490933904085601e-12  3.2595581734816955e-14  1.1542764090364269e-12  3.2417524015011125e-12  1.2342971737460439e-22  2.0157866226842575e-21  -1.9817263574159592e-09  -5.9475500047214226e-16  2.4262331938862900e-14  -9.5676656459169043e-08  1.2373787262842345e-16  -4.7170391112777741e-10  2.5790393815403187e-17  7.9163776789564920e-11  1.5438256913041161e-09  6.6860438906655732e-18  1.7438857366450140e-20  -1.2995085213552333e-05  -2.6204583242987168e-09  -2.8708777793772292e-15  -8.8592843899719772e-15  -1.4828118177169074e-14  5.4883260658176897e-22  4.3822976086424691e-19  -4.8714976078539919e-19  -2.7041165582734657e-06  1.2400819270605907e-10  -9.3985883598773911e-18  -3.4411490092017202e-16  9.4562225373004276e-16  1.4899963724942896e-13  -4.0655325953452678e-16  -1.9396743692660525e-16  1.4841904748629893e-08  8.9936891951712224e-11  -9.2183891998990483e-14  -2.5868749723150182e-18  9.0075620538299105e-14  -9.2527554478620221e-12  -1.0994322171020294e-18  5.1890640255410119e-14  6.2480886768383377e-06  1.4537516916840202e-11  -4.5566844464707094e-14  -9.7768833990437351e-16  -5.3002610426210451e-17  3.3349283447106768e-22  2.2898941126997705e-14  5.6809628879037732e-06  2.3083149226237325e-12  2.5720166609730708e-14  -1.8897883081572044e-12  2.1639252277636609e-13  -1.6096327471583262e-14  1.6916133885236014e-10  -7.6494289678393154e-12  -7.1845796651229390e-19  5.2495044621678629e-14  2.1459837598182695e-09  7.9489892885004625e-11  5.9183275725828815e-11  2.8514701893149204e-09  -1.3631508301823213e-08  1.8420690300569383e-10  6.7487187804334724e-10  -6.5610870905360733e-17  -2.4521313399328418e-16  2.8483556067953693e-06  -1.1615320383189810e-20  -6.4930185600373397e-06  3.0051053046734388e+00  -8.0043586459015683e-20  1.0718060170083621e-16  7.8841756179833817e-08  6.6286774598145478e-12  -3.1632131867674341e-07  -1.0719195308483899e-15  -1.1136955086746438e-20  -1.1859972395819469e-19  1.8927748557445541e-18  -3.4889355101592839e-18  1.4125926793291873e-10  1.7804249881085454e-10  1.5302473460910635e-13  2.5690211695747300e-14  3.3852733078821069e-18  1.9192310018175915e-07  -1.3953456334708150e-08  1.8025934828520935e-06  2.6789765786225597e-11  -6.4948103437521769e-16  3.3016875183875877e-11  -2.3884591205492738e-08  -1.3109533217227821e-09  3.0708064570257222e-06  -1.0332472264974645e-11  1.0253127028203901e-11  -5.9867082711079784e-03  -1.4493477008835015e-19  9.0615684731441254e-12  1.1371567174154172e-11  1.3071468851540613e-10  -3.5950743315591207e-16  1.3594314689810693e-13  -4.1545714174574886e-18  1.7472331653890527e-03  1.6027203684399042e-07  -2.6225340543429764e-15  1.0106783766341769e-08  8.1513177867184330e-12  -8.9439955572444152e-18  6.8281640793182752e-11  1.1599222746247737e-13  -6.7456257979247681e-08  1.8948754041046858e-16  -1.4263156752222685e-16  -4.4703330331766980e-16  2.8827961686742292e-12  -5.7717317752681386e-20  2.4573594155687095e-14  4.7252013476143447e-18  -4.3044480500412788e-11  -5.1756129090246068e-12  -5.4291825289075508e-09  5.7075269919167262e-18  5.9554533871612325e-11  1.5757262480649023e-11  5.3285867796813332e-20  -3.5146106682757152e-03  2.4464529896214304e-16  1.2340302748210172e-11  1.0747516489174154e-12  3.6961852283354585e-09  -9.9830596043090633e-09  -5.4959817946427664e-19  8.6054052204906573e-11  -8.5522895956030624e-05  -2.2612412397602606e-16  1.1295584501577212e-11  4.3968433173290150e-13  1.4294263683484765e-16  2.0921663070259708e-17  1.8771278147766329e-13  3.9169060280173269e-06  1.3686465148850596e-01  2.9683625335775692e-12  7.3412958451070351e-12  4.8200357536302697e-22  3.9705413259233977e-11  -3.4575511762364606e-11  6.8885580460409481e-08  7.8367839899215253e-18  2.3065378320460821e-16  5.2864279684035031e-18  -1.8984111871177967e-09  1.6516008450173937e-19  1.0253523906765373e-19  -6.7406308913801562e-20  -1.2580001962180173e-18  -7.0519108781042926e-10  -7.4180903498154846e-09  -1.0454440197788694e-09  5.7129057039216066e-18  -1.4355582951742762e-10  5.0797114223919375e-16  1.0239272662407216e-09  1.6651377594831467e-16  2.2923028351005668e-06  1.4484399324146871e-07  1.5215141036046877e-11  -2.0565042347207536e-13  1.2768027533117039e-11  7.8473204124094672e-11  3.3722966838720726e-03  7.4221791427127629e-05  9.7686930312610090e-06  -4.8087567507721851e-10  1.4890260351172741e-16  2.0086586390978187e-04  -1.6358555723392800e-17  -5.4381139287488209e-17  -4.1328089281777420e-17  4.2286130177565539e-18  2.8480442972710220e-17  -6.8275218911300998e-17  -6.0294951252593153e-22  5.0194440273007527e-08  -2.5055391597188157e-17  6.7878309546749109e-20  -7.8096975880179476e-19  -6.9342317137475170e-16  -7.4613661681782164e-16  1.0690964023948077e-11  8.1207326473968734e-22  3.4419731598634143e-22  9.4691895696032865e-17  1.4292772929289212e-23  3.1691520491539838e-07  1.8273444488385286e-07  1.5014800928239144e-06  -1.9246537650676600e-06  -1.8519877157266791e-16  3.4990097848942248e-06  -2.3446974095246522e-20  4.3727378720284298e-09  1.8303371464865334e-13  1.4087134350472343e-12  -1.3394830996431411e-12  -1.2718257703023756e-13  5.9112273459276276e-10  2.0593330957051581e-20  -1.6084764790077312e-20  1.3626449742293660e-18  7.7839756975410957e-19  -1.2092330218216025e-17  8.2955183592031186e-16  -3.6519190801431247e-11  6.7872654556164116e-12  8.7765816897343972e-19  -5.3641155545069724e-11  1.1822443470285125e-10  2.8551175751176918e-10  2.4998787807904779e-06  1.1095579627583685e-11  8.1694638637328245e-19  2.9804089803320967e-17  5.4489901948632047e-18  3.7627905704516962e-14  5.7482099002543457e-14  1.8542089254196109e-16  8.2204294910107575e-18  -1.4967027942713619e-16  4.2188062752162675e-13  1.2494650779929802e-14  2.4101031864331888e-18  8.9291383598570764e-02  -3.0086115673878610e-04  4.4706447660671943e-10  -1.4389634892474690e-19  1.0538207491792195e-19  1.9809412436772136e-17  7.5550490586702011e-18  -7.6589979537854760e-22  2.0097133318087999e-17  2.1614817513363331e-21  -1.3230577683124743e-04  9.1871268230835773e-04  1.9789024203995780e-15  -2.5764601864450889e-14  -1.9226663712054374e-13  -2.4600095260981395e-19  1.5659844250064618e-19  5.0595376265160622e-13  3.6260043303535685e-08  6.7559777862968323e-09  2.7110026953038448e-06  1.6875119651418203e-12  -5.7435425208042632e-08  1.3284653883185397e-04  7.4703867856158583e-04  -3.0629839593908121e-14  1.6298682358211760e-13  -2.5406991448268961e-15  -6.7306448683194635e-16  2.2878684704724166e-17  5.0633117763023732e-19  6.9213660084301690e-14  1.4906527626694132e-18  7.4186338992438844e-20  -7.2700621640300048e-15  -7.9350530545191880e-18  -9.5900701117506386e-17  -7.7190395602607597e-21  5.1733795679189639e-20  -5.2509039243037207e-14  2.3569274145120942e-19  -2.8949676521705650e-13  -4.4649314385330046e-16  2.6771592567046266e-14  1.8581135047634859e-16  3.9338787344214695e-08  1.2494241258482066e-11  1.1251254024269778e-11  7.6270127912261365e-14  6.3340655626119532e-19  -3.7799849772813355e-19  3.9667817539748640e-19  -6.9693429285398493e-23  9.1588733407929662e-20  5.9034163497673210e-22  5.8835700610393014e-13  5.2016140896985653e-10  -1.1278558231512563e-17  -8.3434378071623342e-16  -2.1151031785447380e-10  -8.9518621609927462e-10  2.6497923320894091e-13  3.3542800544570302e-12  1.5010993474806486e-10  -9.5114482850434388e-13  8.2291223044150850e-14  -1.1797991453475793e-15  -1.2034675036277628e-17  -4.8077842888682899e-16  5.8010957610053396e-15  -3.5538976238279192e-16  4.1123602091427942e-17  1.1257331084798320e-04  -1.3543053762132614e-12  -3.5269199309962881e-17  -7.2506359607761551e-08  4.7670055441308621e-13  -1.7244530894487083e-13  1.2933212171600304e-14  8.3294702701573939e-11  5.0837145325310050e-04  -1.2306757511556797e-22  -2.9824216883026526e-24  -1.8535903703515722e-08  2.5916637805416684e-21  -6.0657995019035743e-17  1.3450496696448629e-04  -1.9279678104088698e-03  -1.4391716666564965e-04  4.9168871438245939e-19  1.7919234775860402e-17  7.5045735641089397e-03  -3.0591563344218911e-10  1.4574080832046714e-18  2.0078277742791727e-03  -3.9047798494967558e-17  9.3007486475584911e-22  1.0729455993523445e-13  1.4214965329025385e-19  2.7854130043501853e-16  2.7901728789065452e-11  3.5392155470956144e-19  3.2626074469734622e-12  -4.9367294300998729e-18  2.0295948004699821e-05  -1.1720371411688657e-11  7.0650792480116973e-03  -7.7575460490628023e-11  4.6811255842809758e-18  2.5388644402329300e-05  8.4885938281311533e-15  1.1763771565183216e-11  4.9134685535325061e-19  6.5532484957221368e-13  1.2477240475875508e-17  8.4691011435569793e-19  1.2091544118954680e-11  1.6409828568763080e-12  -3.0802121317265026e-18  -7.0506435883250353e-11  3.4078389377257864e-07  1.2838890944970837e-08  2.0086923855206006e-06  -1.1404685695179536e-17  5.2290908870157826e-16  1.6622109986048157e-12  1.2145985324062826e-12  -1.5279705356144514e-06  1.0589854286245136e-16  -1.1155367358995436e-16  1.8728606038708891e-17  5.2757207214583511e-16  3.0563397962800366e-14  -3.3076610765693989e-18  -8.3257858814919591e-19  1.2841214344814367e-01  6.0794880210297676e-05  6.9233673090885678e-07  3.4794752068721580e-06  -3.0772718782374664e-08  1.2856494865254128e-06  1.4340431606966334e-07  2.3642591969918565e-11  -2.2044494334765357e-13  1.4580287262238652e-06  4.7435688380377188e-19  1.0681696181688925e-11  3.9770340582593689e-17  9.3586990492957306e-09  2.2982554496633173e-09  6.4275944569781514e-09  -3.1681084463940623e-08  1.4104630959434033e-19  1.2053007714649762e-19  7.7641887962430704e-11  7.4063698721085033e-13  1.2632445849815085e-14  4.1120514030464183e-18  -2.2732916580877791e-16  3.1979935444011709e-09  -1.1386559677337645e-09  2.7808181241495190e-19  -6.0546395249336754e-18  8.2400280973826627e-16  2.3584862202689783e-12  9.7422897660269850e-12  -1.4722593140658467e-12  -2.7591908808302857e-13  7.0737248805208728e-09  6.9914333317367111e-13  -5.2882278343453046e-08  -4.6681694752020925e-22  5.3938782185018754e-19  1.3000660637014049e-18  6.7889500453510395e-13  7.1370503258329442e-15  8.8450628735533992e-20  1.7434218222317923e-20  2.5506006291745556e-21  8.1868125602470063e-20  3.4704143412350357e-11  1.1288899264456738e-12  6.0565105160242255e-14  -1.0514233901680305e-09  5.9967960300529335e-09  1.9571359978510163e-09  -3.5694364646085046e-18  5.6143172805261569e-12  1.7896602079593296e-14  4.6118617933166118e-08  -3.2686112105250852e-19  -1.5496497795282824e-15  8.7268587861378210e-17  -5.7782488086344342e-15  6.9347607045293218e-16  -7.8519547581636133e-16  3.4402577037585579e-13  1.6484132982419116e-13  5.6205828776634301e-14  2.3347515243029365e-13  7.7647245197217713e-13  9.2872044413222081e-21  1.5918572695605361e-23  1.6992541846106729e-17  -1.0951245182811088e-16  8.4049387975293359e-21  -1.8995584204094657e-18  -4.9010923832232351e-20  -9.4058224073974444e-19  -4.3650314786555412e-20  -4.6180043804793820e-18  1.9027612915538518e-17  -7.6781436980199926e-18  4.3845267549764748e-18  -2.5301316375834256e-21  5.0078702942440955e-21  2.3245103618446487e-21  -7.5456279364827468e-21  1.1225022129809930e-18  -6.6460990345458494e-04  -2.1667879859935247e-09  1.6572369067699653e-10  1.7576559303118170e-10  1.4572998975416817e-20  -4.7357016804177339e-18  -5.2045480837963457e-17  -9.1393843761459689e-22  -4.1884894667034138e-08  8.4383111392054435e-13  -1.3864847648332186e-18  -1.8235533137703753e-07  6.7518595686854157e-20  -3.5892801949426468e-11  1.0812621179337592e-14  -2.8478207381844037e-09 