<?xml version="1.0"?>
<VTKFile type="UnstructuredGrid"  version="0.1"  >
<UnstructuredGrid>
<Piece  NumberOfPoints="3002" NumberOfCells="5870">
<Points>
<DataArray  type="Float64"  NumberOfComponents="3"  format="ascii">323455.6100285493 6048753.88242996 0  323455.6100285493 5954782.59950515 0  405920.1480513444 5954782.59950515 0  405920.1480513444 6048753.88242996 0  405920.1480513444 6001768.240967555 0  323455.6100285493 6001768.240967555 0  364687.8790399469 5954782.59950515 0  364687.8790399469 6048753.88242996 0  364687.8790399469 5996367.117560402 0  323455.6100285493 6025261.061698757 0  382226.6271443229 6022560.499995181 0  405920.1480513444 5978275.420236353 0  323455.6100285493 5978275.420236353 0  353897.8957397301 6022560.499995181 0  344071.7445342481 5954782.59950515 0  385304.0135456456 5954782.59950515 0  405920.1480513444 6025261.061698757 0  354379.8117870975 5975574.858532775 0  381582.8168806895 5978840.396198289 0  384950.2598624413 6001768.240967555 0  344643.0480768835 6003429.02033719 0  344071.7445342481 6048753.88242996 0  385304.0135456456 6048753.88242996 0  339717.0321562298 5986078.187627405 0  337515.036058786 5969821.016310448 0  368062.2614420265 6013076.224998265 0  368062.2614420265 6032044.774992097 0  393987.6142659165 5988729.699941677 0  405920.1480513444 6013514.651333156 0  392856.2821527076 6034589.119828064 0  393514.9611654527 5968369.338068204 0  339399.8087404341 6032061.482581838 0  323455.6100285493 6013514.651333156 0  374995.9462927963 5965504.865595459 0  354379.8117870975 6037976.901948514 0  338123.9088969378 6017031.529131207 0  367397.3120126425 5982072.559192053 0  351882.5752379905 5991998.990225234 0  376945.425450199 5991232.708824487 0  392265.0061656896 6013300.936254065 0  357029.7426706699 6006608.947964352 0  380093.6207558212 6036880.127749795 0  323455.6100285493 5966529.009870751 0  405920.1480513444 6037007.472064359 0  405920.1480513444 5966529.009870751 0  323455.6100285493 6037007.472064359 0  333763.6772813987 6048753.88242996 0  405920.1480513444 5990021.830601954 0  323455.6100285493 5990021.830601954 0  362879.3643765316 5966837.319094267 0  348367.6438548031 5965604.161682394 0  334493.1989038612 5996935.948935225 0  395068.5043068817 6023875.372615605 0  348216.0324377587 6013504.844950221 0  379305.9090074943 6011603.390019651 0  372523.5158233726 6003480.000732267 0  395435.2039568929 5999384.346358113 0  395612.080798495 5954782.59950515 0  333763.6772813987 5954782.59950515 0  395612.080798495 6048753.88242996 0  374995.9462927963 6048753.88242996 0  374995.9462927963 5954782.59950515 0  354379.8117870975 6048753.88242996 0  354379.8117870975 5954782.59950515 0  335074.5981535012 6007206.680367459 0  391925.2695590468 5978591.908877409 0  371969.1707190623 6022560.499995181 0  383872.162544519 5969415.106147043 0  358038.7139835292 5984533.09712744 0  369699.869182786 5973102.2359358 0  369841.9126663716 6041099.453006387 0  343176.7440329155 5994428.220622956 0  362933.5332293962 6024385.235173292 0  330640.1760208776 5984148.625419154 0  348684.7494355051 5983110.856817525 0  399094.9690929834 6007537.420809742 0  345447.6324516311 5974162.84917082 0  332859.7749513451 6039150.972778062 0  344517.044630671 6024057.945416138 0  332973.1214415312 6025037.914505113 0  341428.0126373461 6040493.820728126 0  385874.264691618 5992757.40885039 0  350337.3662538711 6030387.535304286 0  359887.2373602368 6016186.250094838 0  377097.8989316926 6029115.217702097 0  338917.7109078235 5961484.016839475 0  329495.5261590715 5972402.215053552 0  336644.7280634616 5978216.610794215 0  330688.6715098422 5962480.256438018 0  359899.8039476132 6031963.415584587 0  399746.255941904 6030426.523907755 0  385511.6875144855 6030368.508996127 0  387377.735783329 6040763.821024337 0  398832.192399829 5974431.100387635 0  387992.9498994246 5962432.032572681 0  405920.1480513444 5984148.625419153 0  364925.7641745284 6005782.953640081 0  361769.877068089 6041226.651684469 0  398452.9199001931 6040850.732439541 0  398946.6205243983 5962252.502309519 0  362305.5577564609 5975984.89789681 0  356822.8065216601 5998470.186307689 0  386900.7115926162 5984820.732438302 0  329528.0119279922 6032067.230024892 0  331139.6939744562 6013813.572928222 0  398457.5876798834 5982541.698799337 0  405920.1480513444 6019387.856515957 0  398685.5166750694 6017257.578706384 0  348587.9424884976 6042755.309150081 0  369841.9126663716 5960143.732550304 0  380149.979919221 5960143.732550304 0  359533.8454135222 5960172.384722514 0  377147.8814772839 5972649.581024994 0  341756.3455763521 6010124.092444684 0  355615.8176864882 5966311.193813809 0  369144.4338274571 5989807.770003954 0  375185.9047422862 5983510.422041401 0  323455.6100285493 6007641.446150355 0  391856.7960121195 6005888.565703365 0  371978.0245217044 5996361.134308098 0  405920.1480513444 5995895.035784755 0  378877.1880032702 5998073.745937059 0  359056.6617417652 5991643.489540118 0  399278.8743430426 5993436.466134224 0  386116.8775939071 6009922.097099247 0  323455.6100285493 6019387.856515957 0  388994.7833819839 6019826.789191471 0  348897.6207366391 5998116.079250046 0  345456.3301153719 6035064.814295612 0  323455.6100285493 6042880.677247159 0  334124.3013408988 5990072.953472659 0  377097.8989316926 6018059.782440464 0  323455.6100285493 5995895.035784755 0  342871.8474798963 5980154.238874755 0  373596.9793292385 6035659.183886081 0  380149.979919221 6048753.88242996 0  376327.9292813152 6042294.581731233 0  329163.3548105369 6004704.843558955 0  350303.9432136903 6007093.032074522 0  383982.6552804571 6015912.664375832 0  345515.490569988 5988567.439252969 0  379019.812877927 6004678.052169549 0  365541.9137639466 6018750.691894444 0  349225.7781606728 5954782.59950515 0  352493.3399767278 5960815.406895458 0  363683.8130458911 5986976.225872464 0  386666.791301207 5975084.583584332 0  368937.6553346639 5966171.092344863 0  400003.9882214358 5968352.273777306 0  328776.0063842635 5992958.433193355 0  339958.4428758043 5999572.344589042 0  354577.7732363954 6012555.454074449 0  328609.6436549741 6048753.88242996 0  382053.0280278458 5988228.496807038 0  330708.6817934912 5978212.973348036 0  372084.7734679543 5978495.086505585 0  358568.2738174705 5971419.415228934 0  328931.2672829705 5998832.905089681 0  323455.6100285493 6031134.266881558 0  405920.1480513444 5972402.215053552 0  405920.1480513444 6031134.266881558 0  323455.6100285493 5972402.215053552 0  405920.1480513444 5960655.804687951 0  323455.6100285493 5960655.804687951 0  405920.1480513444 6007641.446150355 0  323455.6100285493 5984148.625419153 0  405920.1480513444 6042880.677247159 0  346648.7613474604 5960023.05127712 0  342415.3891593561 5966358.988213831 0  350507.6510228226 5971111.740321856 0  391773.9667214506 5994456.117700323 0  338875.8905424621 6026088.827345025 0  361429.1735454847 6010511.262533597 0  389395.7028803263 6025805.543023561 0  392895.6464692951 6043315.288173481 0  332846.8296575367 6019296.633131165 0  373337.4404588729 6009693.515402478 0  336544.3064612215 6043648.151399015 0  348610.2411382072 6019567.839754772 0  381943.4597763228 6042183.394750732 0  355630.0631288611 6028071.82801846 0  363941.5238882306 6035967.852698964 0  328179.67203552 6022271.326978176 0  401066.2857736665 5998807.415073814 0  344387.1099621175 6029612.545574771 0  393435.2235156003 5960233.556458537 0  400735.9970493424 6022675.638064924 0  393708.5772019727 6029179.837160029 0  400609.0696943338 5987857.851798974 0  361753.6614662939 6001152.171757337 0  400766.1144249197 6048753.88242996 0  353363.0524357285 6002630.165620538 0  343248.328463803 6018790.640008039 0  356419.8105951758 6043365.392189237 0  390234.385899412 6000759.497967276 0  368336.1168551637 6000220.532318851 0  328609.6436549741 5954782.59950515 0  387520.8298169724 6035372.992507171 0  400588.0280660195 6035823.299583429 0  329021.6598427091 6043194.252697862 0  393371.710206733 5983576.325812268 0  393638.9721728675 5973623.513063556 0  371727.9212466564 6017113.044457142 0  364687.2762977295 5959941.212693035 0  374995.9462927962 5960346.83186599 0  369841.9126663716 5954782.59950515 0  400766.1144249197 5954782.59950515 0  338917.7109078234 5954782.59950515 0  369841.9126663716 6048753.88242996 0  359533.8454135222 5954782.59950515 0  390458.0471720704 6048753.88242996 0  338917.7109078234 6048753.88242996 0  390458.0471720704 5954782.59950515 0  359533.8454135222 6048753.88242996 0  380149.979919221 5954782.59950515 0  349225.7781606728 6048753.88242996 0  339867.4956514095 6005339.817053361 0  333737.9460226952 6002130.523287664 0  336955.8140048417 6012008.440073739 0  377097.8989316926 6023232.32559834 0  371748.9790486701 6028016.629988787 0  338146.5171983215 5993298.164761053 0  355016.8390227688 6017610.913088997 0  393953.1528190996 6018968.416019509 0  335185.8133477239 5965142.63403323 0  328616.6041642396 5967263.80307608 0  380314.9487662361 5965460.362415641 0  354622.8993466098 6032976.142863722 0  328521.4725131759 6027215.026914048 0  334465.0783479523 6034070.534389696 0  328123.6212682287 6009699.206425843 0  381889.5169855529 5973936.741901617 0  359122.3484437474 6036790.002992895 0  386341.6533148278 5979963.279841923 0  400798.2159679119 6012477.871311778 0  388538.3765260249 5967461.292146791 0  340833.8784183678 5975728.708105717 0  355307.6239213505 5988552.151815021 0  362181.4274823388 5981261.937800813 0  353784.0322742948 5981044.538811012 0  358045.1698423899 5978741.391518688 0  328423.7350325213 6036912.015930048 0  366897.6876966125 6027277.723668203 0  347355.1745641421 5978532.307510624 0  376820.5060332146 5979033.270735624 0  349378.1778589479 6024378.632814493 0  327189.2282939323 6016451.253924556 0  338433.8773236172 6036753.902881841 0  350141.9760340559 5987605.90026687 0  363794.7083927878 5991713.491814731 0  350325.1285660182 6035273.515460094 0  382355.9358007369 5983507.499638396 0  327107.0747437811 59811
[...]
<PointData  Scalars="f_3058-1"> 
<DataArray  type="Float64"  Name="f_3058-1"  format="ascii">-7.9499726439270039e-24  -3.5463812087558607e-22  -1.9740461830290077e-18  7.9580044182819337e-22  -2.8541005534727409e-12  1.6498305713883701e-17  4.2464443557002805e-17  -5.4426873293113744e-19  -7.1391842036124632e-05  3.8863648296587638e-19  9.3291199253442672e-12  2.2544644788881145e-13  1.9131086279696254e-19  -3.9788537989523669e-11  1.6627114515293255e-19  -1.8516363201045530e-16  -3.0452004208347479e-17  1.8854474460529174e-12  -5.3332519417460831e-08  6.3799151891689734e-06  7.1723752865357274e-10  2.1583036183698642e-19  -2.3329254412524967e-19  2.5265659867831468e-14  5.4583509259943602e-18  -2.0191243220723580e-06  -1.2877984222833225e-12  2.5388393815309567e-08  -4.9472431282949432e-14  3.8621729162112256e-16  4.1603285225898282e-12  1.0730323341204015e-17  1.5277890205665612e-17  -7.4129219116790212e-13  4.7457752011072614e-15  1.3700816628611357e-13  4.1120380833735048e-07  -3.6435201829333568e-09  7.2282939617111953e-03  4.7498232031109647e-10  5.0956094664151946e-06  4.1879145657114113e-14  -2.2175046319337906e-21  4.2540543165007177e-20  -1.3874927004349988e-16  1.9864753967550555e-20  -4.2331771690471747e-22  7.5162876152244218e-12  6.9942382173328827e-19  -1.0661195355212516e-13  -3.2302652120619922e-17  1.7992179789497512e-13  1.9401734523037334e-14  -2.5134677044393394e-11  -3.8132015983423510e-10  -1.7139057908753530e-04  4.0270206774956315e-08  -2.1361510021928499e-17  2.7230548218904696e-21  -3.0888489857655360e-20  -2.7893241015946312e-18  1.1333109104197815e-17  -5.8465937813999145e-19  5.1793433832036589e-18  -1.3416102839400999e-13  1.3987333422068217e-09  -2.9924365087770369e-10  1.3414684242501801e-10  -1.4678707798354955e-09  -2.6043272449443883e-10  -1.1662557718177571e-15  -1.0970933732661290e-10  -4.6165883649780423e-10  8.0909058386121232e-17  -1.0645029255324804e-11  -1.0827896278451472e-11  -1.8659288597995186e-15  1.2539031186156379e-22  -8.2029223331041780e-14  -2.1479181588889513e-16  -7.6608109553195710e-19  1.2710082257258624e-04  -2.3049619018817260e-13  -2.2054293440355870e-08  -7.4145638687214537e-13  -3.3734376915467094e-19  -9.2335934664457698e-19  2.2267777384284741e-16  -6.1204290899841739e-21  -6.6635768750655441e-13  7.3002027858784129e-18  6.9647684009689988e-13  8.2337202860097031e-18  2.1273735352666581e-12  2.4983114338487969e-13  3.3502338938241825e-12  7.3135731618433520e-04  -2.0698356657837882e-15  1.2372423680924702e-18  6.3856461807883973e-17  3.1860101439308124e-10  -2.3203102151130352e-07  1.8291432775316952e-06  -8.0879596842415391e-19  7.7399095718587007e-16  -2.0104180129700818e-11  -8.4324839991506900e-16  1.4610752529383898e-12  2.1110481408280142e-17  2.5769957967544891e-14  1.9941823549923723e-14  8.2900051065279558e-17  -4.5418601255407748e-10  1.8674829609840594e-11  -2.9129905624208713e-15  1.2190555934813802e-05  3.9759021357241574e-06  8.7921768933868251e-18  4.8555952666298448e-09  4.2950318182938860e-02  7.5854997148341577e-12  2.3981379860844570e-03  2.8570649719480901e-06  1.0401146397253144e-09  -8.5968951331504646e-09  -2.3883145550352490e-18  3.5295620410614016e-12  3.6756306855027224e-08  -3.5815961273468571e-17  6.5493153009544751e-22  1.7173131332891433e-13  1.5210423947659586e-08  -5.3578431777896312e-18  3.0003052599749125e-13  -7.8606661541122953e-16  2.8372792892366199e-18  -8.9063277261071338e-17  1.6849455243632006e-15  -6.4432592817536010e-09  -1.5995293744859580e-10  5.0793713711841176e-11  6.3665134114116404e-07  -1.7422124086164425e-08  -2.4580281826905858e-19  -2.2831396039939567e-17  2.9786528076160508e-06  -1.7477526196965401e-09  -4.8513039637546672e-13  1.7070864910939498e-15  -1.0227251001900871e-16  7.2745346911235704e-11  6.2643744750039085e-08  -3.0253015137664121e-23  -8.0057323422034213e-05  6.2873564290034181e-18  1.2149853677427730e-07  1.9271446318289346e-12  9.6107016707548044e-16  -4.6801007556523173e-23  4.1272391070842752e-15  -1.7946008937756690e-19  5.2522607468977934e-20  1.9069886295322404e-18  -6.2625081854768323e-23  -2.9678679356997973e-13  2.5284122380843193e-18  9.6236633336471686e-21  1.0396421263997681e-18  -3.5238312013823165e-17  9.1074942011089457e-14  5.8639932070419204e-07  -2.4196314981673096e-16  -6.7644139482587154e-07  4.6972127654013124e-15  1.4636648908988338e-18  6.8932869874764105e-16  2.4304161933926713e-05  6.6806523968018669e-21  -7.6572880780324200e-12  1.1608138791393061e-17  -2.5621749866565931e-12  -1.0536114348209383e-14  -2.4760613735839473e-19  -2.2244743532079057e-11  -1.5263332538307134e-15  -9.0966237212726247e-16  -2.2084895996446871e-16  6.4508795216443905e-16  -6.1931264137815404e-11  -1.8413777776134342e-05  4.7407114507569699e-21  2.3412261573907390e-07  3.2813772085482754e-12  1.9954154186779292e-17  -1.0836289478604206e-07  1.0781387387291679e+00  -1.6475429572499317e-22  4.6730699679435095e-16  1.5137593447125422e-18  -2.7380665092753844e-22  -1.8948617129651201e-09  -8.1021408669676034e-12  -1.0084983915067438e-08  1.4739292497874614e-15  5.3716261956202174e-15  1.3980171940210806e-17  -2.5091732124405366e-18  3.1976146885617508e-20  -7.9907211292308321e-18  1.2488786422919189e-17  3.0883711095648169e-20  -1.5774916533524855e-20  -3.6789354980442229e-17  5.8566682311368255e-19  2.4319532498597003e-17  9.3348956213206213e-19  4.0083023138618054e-11  5.2980467515197767e-13  -1.0829782195085683e-13  2.7713001727633716e-10  8.5508933537549889e-12  7.2994446884708642e-12  -7.3158370111730957e-10  -6.8375596357781507e-14  -1.4521649566654230e-19  -3.0525290031418737e-20  4.5837688492743309e-13  -8.7908250025339374e-14  -8.1194313189676690e-19  2.0171776734146424e-19  -7.0806935934713043e-16  9.3425276988800149e-10  -3.6755341620673121e-14  8.8119942531090914e-08  -9.8254293916577560e-13  -9.0942440343198609e-13  6.2341406692038234e-16  -8.8128856742528744e-09  -6.7982642651697523e-10  -1.4434520482125025e-11  -4.9415343732524709e-11  -1.7563737645066369e-20  -3.9730424959835794e-11  -3.6107228726109490e-13  6.4761564179422438e-08  -1.6494059301287430e-12  -2.1459695467441317e-17  -1.0866782455448148e-19  -3.6016927633738105e-10  2.3326564395595984e-06  5.4148309230025879e-15  -3.3008217612404844e-06  1.6030790515059332e-18  2.6062425389375675e-15  -3.8979703306031300e-17  4.3775828655296946e-04  -1.6861916555653146e-11  1.6695222325280594e-11  7.8752566997526533e-09  -9.3070740847787032e-17  1.0044384622364647e-16  -5.2861909256081244e-14  1.7642304891450181e-19  1.5292398874882065e-18  1.1101615874509069e-10  8.5378321063613854e-07  -9.0109874166580579e-18  3.6489461978243220e-05  -2.6614743965562469e-15  1.2161219365704774e-09  1.4009307924049386e-06  5.1987253233066110e-03  5.9042165032656380e-10  -5.2169242864285451e-16  -4.8789573571437666e-11  9.4381955838569312e-11  6.8803742047598456e-10  4.9578445607590670e-10  -5.3174712802238178e-08  -6.3066030919207003e-13  1.8151733616532939e-11  -1.2557505191460815e-12  9.7784986185287780e-09  -8.3397016384943731e-07  -1.5296103895065525e-07  9.9573817465587622e-18  -1.3785722744761756e-11  8.4382138943621211e-21  -8.2117895721545654e-17  -8.2452344058285375e-11  2.0312540240047153e-12  3.5358289238023162e-11  1.4868306781084852e-19  9.1118292337404006e-12  6.1934119353232816e-13  -4.3527060071489739e-05  2.7867825525192334e-15  -4.5625355394824057e-21  2.4084493983542831e-19  2.2686160341960178e-07  2.2474481907363319e-16  2.3844564688107491e-14  8.1687194724535111e-19  -7.6645297403422234e-13  5.1026627960912597e-20  7.9985122566610541e-20  -5.5126867220140099e-23  2.0468676898901428e-03  5.9296820518383932e-18  2.3230699274859096e-05  -1.6325316225458045e-17  -9.6653690456907796e-22  1.6094358963893038e-16  -5.1332772325950189e-14  -3.8668693651063865e-14  7.2883862188333272e-16  -6.3275601470677996e-11  1.4264591279914478e-13  4.8623491147705450e-16  -1.7151608332064314e-16  -2.5052497827755922e-14  -8.2122266916447176e-08  -4.8485010992862803e-06  8.8318141508675953e-06  -1.0993491238389575e-17  -2.3032102235533047e-12  2.3602939494509067e-15  -1.9353729167048540e-23  5.4494538566428363e-20  3.7853679852207981e-13  -6.4182199511126418e-14  -2.6210938688680440e-14  2.6184698051996127e-14  -3.0911368292482855e-17  4.2108244041508144e-17  3.7054599532028122e-17  1.9204822811687489e-04  5.0081682727360687e-11  -6.9885586208234015e-15  3.3668456559864381e-09  1.6729901839887614e-05  1.6968363380717887e-04  5.9392569181818697e-04  3.0455017039190159e-03  -1.6006087637760818e-16  9.6412837246236113e-08  2.6201391916136093e-12  -5.3198248694917082e-15  -1.6184035130351938e-13  -6.4947564437765549e-12  5.6808065986472432e-23  -4.7743301701311463e-21  -6.9465330154562007e-09  -6.8530833713361354e-16  3.8833251599670936e-14  7.7887287475092320e-08  4.6604042491739374e-16  -3.0189277302801391e-10  -3.4324092186790277e-17  -8.9066284065278195e-11  1.6756610515891448e-09  -1.2673757620249401e-18  -2.1421872607224298e-20  -7.9412568624837701e-07  -4.7251017700129578e-09  6.4781506863113602e-14  -6.4331850478586805e-15  1.7013988867917641e-13  5.9616671509465408e-22  1.7622094655360180e-18  9.5395881077975154e-18  2.3170380454420945e-05  1.0609956838379477e-10  8.4912043296991754e-17  -1.6935890412566602e-16  -1.5064787696860533e-14  2.3815208823058157e-13  2.8851925334911138e-16  3.8796079288258004e-16  7.1160027705993705e-09  -1.3970609186340112e-09  1.4403296412890428e-13  -3.9017977780379079e-20  7.8897568758793101e-16  -1.2431989499627175e-12  -1.6034152800487204e-18  -5.2850747459524908e-14  -2.1689310869296891e-07  -2.4326377118805981e-11  4.1005344395570314e-13  4.0003215719980620e-16  -8.0621092741465132e-18  -2.4460767139715359e-20  8.4389130789320748e-15  1.2628963169836996e-06  -2.2262358560234287e-12  -1.1259240493412054e-14  -4.2235527326198134e-12  -6.2293504920816035e-14  -1.2112889825509735e-14  8.9528622384224664e-11  -1.3776721657770896e-11  -8.0000907158585982e-19  5.8269514919372691e-14  3.2709497136916466e-09  2.5879108992792345e-10  -1.7465570668815307e-10  -3.9690974879212178e-09  -2.7716176602424203e-08  -5.3209721252139018e-12  4.1000020005365930e-10  -1.4338029411441791e-15  -1.2719209640763026e-15  1.0038454657793638e-06  -3.8709489461679985e-20  -8.1557087927965898e-06  2.0959810604599660e+00  -4.4617715174679100e-20  1.8077040409886664e-16  3.7640704640658258e-08  3.8999284433593551e-12  1.0700781273608340e-06  -2.4837223255817479e-15  7.1724846910474291e-19  2.5867024837362256e-19  5.4974590620273135e-19  1.3946268845262489e-17  1.2857053426960857e-10  1.2040472401095910e-09  3.0180821616114318e-13  -3.7620548023823885e-13  6.4634278852098738e-18  -1.0957385832554719e-08  -1.5525193738965234e-09  1.1076826694765220e-06  -5.7181242474890855e-12  2.6757709455197752e-16  2.5040218584705064e-11  9.3339141892488184e-08  2.3499746447190669e-10  -2.5854131878563979e-07  2.3978535705406400e-11  4.2085999309601065e-12  5.3432381319547875e-03  -3.4900115914386044e-20  1.1733981422782441e-12  -9.1275393217346485e-12  -4.0935457883761858e-10  5.5670539052485694e-16  2.1377404716059236e-13  -3.5826913321488472e-18  -3.0074888642984956e-03  6.7542162695010110e-08  1.4870882819153403e-14  1.7803401868836122e-09  8.0663096851251261e-12  -2.0340491811450708e-17  2.3373292243670850e-10  7.0364254230612385e-14  -1.1409190687275729e-07  1.9193473936771662e-16  -3.4517532244945220e-17  -3.4265921909105553e-15  1.5195999914361813e-12  -7.6299034288892187e-20  1.7683763749789391e-13  -6.4835005172031455e-17  -4.7815245526766745e-11  8.0906605153674144e-12  -7.5789585037696353e-09  2.0298804763277385e-16  -3.7450121033507894e-11  8.0978161680597286e-12  8.2196013844106619e-20  -8.9133257246932921e-04  1.0925892288623973e-16  5.0387971587570888e-12  1.0148454832883619e-12  2.4218726382314413e-09  1.4100564289409177e-08  8.5311591755228299e-18  4.7109229707618182e-11  2.1651823625038253e-04  -2.8055560546461041e-15  1.0699507077466793e-11  3.7025389420773187e-13  -3.8552785327404934e-15  2.6266463876590557e-17  3.0712909766802332e-13  1.8502503193153834e-06  9.1026575572056654e-03  7.6395849859666597e-12  6.3298078844312327e-12  -2.4415942585914389e-21  2.2716599128126656e-11  -8.8439145837989780e-11  3.8006363634621929e-08  -3.2419758643714982e-16  -2.9511099926330681e-16  -9.6544926615611281e-18  8.1164575942492172e-10  -4.8733840735787876e-20  -1.1313164009795491e-19  1.2254480559476125e-19  1.3401793963413551e-19  -1.3673546359553956e-09  -2.4523205555502084e-08  -3.0299214274565505e-10  -8.2679649113547592e-17  1.3301237256140113e-09  -2.6966902150000884e-15  8.7043352218081448e-12  -5.3078252360730537e-16  1.0019082914830553e-06  8.1603430220094183e-08  -6.9045686447726255e-11  1.4478036553582127e-12  -9.5277960158986545e-12  8.8246375291999758e-11  5.2155057737219234e-04  3.4492991644217466e-05  6.8351954201807637e-07  -7.7072665031038386e-10  1.0490397701119873e-16  6.5348560959174523e-05  -1.1665207120096452e-17  -8.5607031449141592e-18  4.2158878637214864e-17  -2.1085511426608930e-18  1.8356212841869558e-17  3.1097896902919781e-16  5.1389859940887510e-21  1.9651366577152887e-08  3.6694891054280810e-19  2.6426823001919010e-20  -2.0023627322459669e-18  -1.6738070673731368e-15  5.1632740563692938e-16  -1.1443222863686675e-11  -1.0089628068735470e-21  5.5097278746024358e-22  -1.0182949351861651e-16  -3.8571002896974802e-23  1.7840541041001389e-07  -2.3527090584713006e-08  2.1119292108229286e-07  4.3948945413624880e-07  1.2521286871648563e-16  1.6302461772096504e-06  -2.6490967535137009e-20  3.5828912837954994e-09  -1.4254078357175178e-14  -5.6501538245840254e-13  -2.9316511836164922e-13  -4.0543350554027583e-13  -6.1270456489045981e-10  9.7473017204421881e-21  5.6010392484693109e-20  -3.7791903453248783e-18  -7.2216723566558904e-19  -2.7490722554431252e-18  -1.4761462253812042e-15  7.5548460881329603e-11  8.0982879829662237e-12  -6.6846950038144103e-19  -1.5049221982994584e-10  9.6037092504057577e-11  1.1107831547970111e-10  5.7595476506993167e-07  1.1188123085610149e-11  -2.8186724952364039e-18  1.1486733768641288e-17  -5.6898465010201527e-19  4.7658489713959916e-14  5.6899889916587271e-14  3.2200170532739837e-17  4.1903345919761318e-18  8.8563977408245337e-16  4.4777703672110100e-14  -3.4340101928588772e-15  -6.9298962905410067e-18  6.5850088996133064e-03  9.0537415098427339e-04  2.7278010802592249e-11  -8.5112661223459298e-20  6.0034445341490096e-18  -5.3621497869438746e-17  -1.0662276028834606e-17  4.6683765306744425e-21  -1.2081270308404771e-16  -2.0729671476964155e-22  -9.4067706961867783e-05  3.3992706043312563e-05  -6.1371021675905197e-16  -1.1452993673922513e-14  3.9989121547468252e-14  -1.5089864625249299e-17  -7.1315585217166652e-19  2.5394850490895988e-13  1.7411819486034681e-08  5.2930859741625048e-09  1.1068846978469959e-06  7.6535708759876373e-12  -8.1538350495952241e-08  2.8570917931157811e-05  6.8621616127743706e-05  6.5725500828338172e-14  8.3764478445768349e-14  -1.7996835122741513e-15  2.0268421207915344e-15  -1.8941127722330548e-17  3.4451598976569009e-19  7.4018297878431095e-14  -3.5127824606082542e-18  4.2080502378796421e-20  -2.7342154776987978e-14  9.9607965312107913e-19  -6.4524731650938355e-17  -7.8424281353032093e-22  -5.3526122494870506e-20  -1.4361337427964151e-13  -4.3778257718458473e-20  -1.0819758716796019e-13  1.0969162797875897e-15  -3.1581263851520831e-15  -6.3605646174036868e-17  2.5010497696633555e-08  5.2070026050301885e-12  -1.2219914597329123e-11  -1.2116692359062032e-13  -4.8566253087535125e-20  -2.3960026512899181e-19  -6.9258664163037373e-19  3.7657690859357473e-21  5.9052377578770742e-20  -1.1579908637328291e-21  8.7415412494258857e-14  2.3307349659368340e-10  6.7094374159184393e-18  -1.7016672594739519e-15  -1.3005998555515606e-10  -1.7655420096803602e-09  1.5039176098179018e-12  3.2493020149249178e-12  1.2129181409185014e-10  -1.0160558927734131e-11  6.7337201844339296e-14  -6.9792751357274506e-16  -3.1912276283534400e-19  -3.7905077763285391e-16  -6.0050481772376232e-15  2.4131186180938702e-16  1.7480317845645403e-17  4.1813098919264057e-05  -8.7925275353582776e-12  -6.3031566783445173e-18  -1.5457954782849253e-07  3.1533236826743451e-13  -5.2210294204389894e-13  1.4243382858944123e-14  6.9763493481762067e-11  -8.7673149981057117e-07  5.5439447299817589e-23  6.8538821067266787e-23  -8.9206040190219451e-09  -2.3196959879213030e-21  -3.3590762333135857e-17  1.8072135643662110e-05  -9.7658785267684800e-05  5.2366688104922730e-06  -3.2665127552190004e-19  -1.3209152772108030e-16  2.0537262271127059e-03  -2.7158951537011731e-10  8.1334674111138653e-19  -6.0566480619603675e-05  2.8176105828516802e-18  -6.7846930134038493e-22  1.0780780324919038e-13  1.0534080972535581e-20  -4.7381851061656703e-17  1.4992361632259822e-11  2.1816855705342594e-17  9.4733538041853735e-12  -8.5536376063239515e-18  5.3307357405056449e-06  -1.2158803171314406e-12  1.5170956515778264e-03  -1.7793622065460569e-10  -1.2381586266546285e-17  8.2859190037007344e-06  1.5149656031556529e-16  -3.4136807181447411e-12  4.2885914509205434e-18  5.8489702781903230e-13  -5.1852810147240531e-18  1.6692226715653271e-19  -9.8190809981189775e-12  1.2901462285999884e-11  -1.9765414431708602e-18  -1.8562580137260173e-10  6.8994847512379181e-08  1.4377440789107871e-08  -1.5661079737352128e-07  2.5262797379853062e-17  5.9662186206517955e-17  -2.1272432986605862e-12  1.2723291721687316e-12  3.4114710122412542e-06  -3.8619629645507353e-16  1.2410806232373097e-16  -6.1774398821925010e-17  -1.1627266821730255e-15  -1.0952644789974706e-14  -1.8525096884009048e-17  1.1032379353458742e-17  1.3169181845655537e-02  1.0766936377889218e-04  3.2748658218090365e-07  1.0266960936471759e-06  2.4888765368223539e-08  2.7345641310290685e-07  8.2079553940941608e-08  2.1743088409330064e-11  2.9440013788310813e-13  4.8506990297024861e-07  1.7030374945056456e-20  3.1570409351096235e-12  -5.9962127916353529e-18  4.9654058291590476e-09  2.2384019049084910e-10  -1.2591832021142732e-10  -4.6580472216610547e-08  2.8932502424944768e-19  1.5412133947371136e-18  1.7451235452357767e-10  1.6637212901593140e-12  -5.4504407495257589e-14  -1.7698979264147646e-18  7.8995881319318444e-17  1.8960209069473036e-09  -1.3882723032343960e-09  1.4902981419678253e-18  -1.9516686861684960e-18  -1.8001881439082931e-16  -2.1453268476154426e-12  1.5118107653720697e-11  -4.1179307109647479e-12  -3.4007211731570399e-12  3.1101337017495162e-09  -2.9230136157769993e-12  6.4257869991019423e-08  4.8890869002246060e-22  1.8955577433730703e-19  8.5104806811845733e-21  6.0791342654473186e-13  -1.0261684670401345e-15  -1.5408214304491180e-19  3.5905852857166619e-21  -1.8430741910354527e-22  7.9278799927586018e-20  1.6791494805441486e-11  -6.3275390540573207e-13  -2.1230206705518463e-14  -1.6977087570672535e-09  6.6030892199634531e-09  1.9908876088040001e-09  2.6780591769508397e-17  6.3903916131210137e-10  1.5274917950798593e-14  4.4269222855130975e-08  -9.4677021513263430e-20  -7.1718804255886478e-16  -2.5430010583336103e-16  2.1219152604970372e-15  -7.8373427976288718e-16  2.6731180057959011e-14  4.2438578904879302e-13  -4.9756523254315095e-14  9.6513690224836464e-13  -1.1519930998311753e-13  -4.7232944279345253e-12  7.7130985479587966e-21  1.9809960106982887e-23  2.9580209355777454e-17  2.0096164162084274e-16  3.0250817651899489e-20  -2.2502976990717685e-17  4.0828965745049311e-20  1.5401575338168574e-18  -2.8042207085213866e-17  -1.4249095176013443e-17  1.8550216367489848e-17  -1.9965687853844293e-17  -1.6018861937823386e-17  4.4434597467045508e-22  5.7588064150504896e-19  1.2239120203437738e-20  -5.1355322361372920e-21  -2.8364749527170696e-18  8.5960504796559205e-05  -2.5065047496805745e-09  2.5415606184083999e-12  8.7837026905560311e-11  1.1541863296006157e-19  -6.1003309428310531e-18  -5.5857892723316286e-17  -8.6054070524038575e-22  -8.7793690840243726e-08  1.0346193669622661e-12  -2.4967379733170232e-18  1.6522648726804820e-07  2.8472291221104953e-20  -1.0332398564631773e-10  