<?xml version="1.0"?>
<VTKFile type="UnstructuredGrid"  version="0.1"  >
<UnstructuredGrid>
<Piece  NumberOfPoints="3002" NumberOfCells="5870">
<Points>
<DataArray  type="Float64"  NumberOfComponents="3"  format="ascii">323455.6100285493 6048753.88242996 0  323455.6100285493 5954782.59950515 0  405920.1480513444 5954782.59950515 0  405920.1480513444 6048753.88242996 0  405920.1480513444 6001768.240967555 0  323455.6100285493 6001768.240967555 0  364687.8790399469 5954782.59950515 0  364687.8790399469 6048753.88242996 0  364687.8790399469 5996367.117560402 0  323455.6100285493 6025261.061698757 0  382226.6271443229 6022560.499995181 0  405920.1480513444 5978275.420236353 0  323455.6100285493 5978275.420236353 0  353897.8957397301 6022560.499995181 0  344071.7445342481 5954782.59950515 0  385304.0135456456 5954782.59950515 0  405920.1480513444 6025261.061698757 0  354379.8117870975 5975574.858532775 0  381582.8168806895 5978840.396198289 0  384950.2598624413 6001768.240967555 0  344643.0480768835 6003429.02033719 0  344071.7445342481 6048753.88242996 0  385304.0135456456 6048753.88242996 0  339717.0321562298 5986078.187627405 0  337515.036058786 5969821.016310448 0  368062.2614420265 6013076.224998265 0  368062.2614420265 6032044.774992097 0  393987.6142659165 5988729.699941677 0  405920.1480513444 6013514.651333156 0  392856.2821527076 6034589.119828064 0  393514.9611654527 5968369.338068204 0  339399.8087404341 6032061.482581838 0  323455.6100285493 6013514.651333156 0  374995.9462927963 5965504.865595459 0  354379.8117870975 6037976.901948514 0  338123.9088969378 6017031.529131207 0  367397.3120126425 5982072.559192053 0  351882.5752379905 5991998.990225234 0  376945.425450199 5991232.708824487 0  392265.0061656896 6013300.936254065 0  357029.7426706699 6006608.947964352 0  380093.6207558212 6036880.127749795 0  323455.6100285493 5966529.009870751 0  405920.1480513444 6037007.472064359 0  405920.1480513444 5966529.009870751 0  323455.6100285493 6037007.472064359 0  333763.6772813987 6048753.88242996 0  405920.1480513444 5990021.830601954 0  323455.6100285493 5990021.830601954 0  362879.3643765316 5966837.319094267 0  348367.6438548031 5965604.161682394 0  334493.1989038612 5996935.948935225 0  395068.5043068817 6023875.372615605 0  348216.0324377587 6013504.844950221 0  379305.9090074943 6011603.390019651 0  372523.5158233726 6003480.000732267 0  395435.2039568929 5999384.346358113 0  395612.080798495 5954782.59950515 0  333763.6772813987 5954782.59950515 0  395612.080798495 6048753.88242996 0  374995.9462927963 6048753.88242996 0  374995.9462927963 5954782.59950515 0  354379.8117870975 6048753.88242996 0  354379.8117870975 5954782.59950515 0  335074.5981535012 6007206.680367459 0  391925.2695590468 5978591.908877409 0  371969.1707190623 6022560.499995181 0  383872.162544519 5969415.106147043 0  358038.7139835292 5984533.09712744 0  369699.869182786 5973102.2359358 0  369841.9126663716 6041099.453006387 0  343176.7440329155 5994428.220622956 0  362933.5332293962 6024385.235173292 0  330640.1760208776 5984148.625419154 0  348684.7494355051 5983110.856817525 0  399094.9690929834 6007537.420809742 0  345447.6324516311 5974162.84917082 0  332859.7749513451 6039150.972778062 0  344517.044630671 6024057.945416138 0  332973.1214415312 6025037.914505113 0  341428.0126373461 6040493.820728126 0  385874.264691618 5992757.40885039 0  350337.3662538711 6030387.535304286 0  359887.2373602368 6016186.250094838 0  377097.8989316926 6029115.217702097 0  338917.7109078235 5961484.016839475 0  329495.5261590715 5972402.215053552 0  336644.7280634616 5978216.610794215 0  330688.6715098422 5962480.256438018 0  359899.8039476132 6031963.415584587 0  399746.255941904 6030426.523907755 0  385511.6875144855 6030368.508996127 0  387377.735783329 6040763.821024337 0  398832.192399829 5974431.100387635 0  387992.9498994246 5962432.032572681 0  405920.1480513444 5984148.625419153 0  364925.7641745284 6005782.953640081 0  361769.877068089 6041226.651684469 0  398452.9199001931 6040850.732439541 0  398946.6205243983 5962252.502309519 0  362305.5577564609 5975984.89789681 0  356822.8065216601 5998470.186307689 0  386900.7115926162 5984820.732438302 0  329528.0119279922 6032067.230024892 0  331139.6939744562 6013813.572928222 0  398457.5876798834 5982541.698799337 0  405920.1480513444 6019387.856515957 0  398685.5166750694 6017257.578706384 0  348587.9424884976 6042755.309150081 0  369841.9126663716 5960143.732550304 0  380149.979919221 5960143.732550304 0  359533.8454135222 5960172.384722514 0  377147.8814772839 5972649.581024994 0  341756.3455763521 6010124.092444684 0  355615.8176864882 5966311.193813809 0  369144.4338274571 5989807.770003954 0  375185.9047422862 5983510.422041401 0  323455.6100285493 6007641.446150355 0  391856.7960121195 6005888.565703365 0  371978.0245217044 5996361.134308098 0  405920.1480513444 5995895.035784755 0  378877.1880032702 5998073.745937059 0  359056.6617417652 5991643.489540118 0  399278.8743430426 5993436.466134224 0  386116.8775939071 6009922.097099247 0  323455.6100285493 6019387.856515957 0  388994.7833819839 6019826.789191471 0  348897.6207366391 5998116.079250046 0  345456.3301153719 6035064.814295612 0  323455.6100285493 6042880.677247159 0  334124.3013408988 5990072.953472659 0  377097.8989316926 6018059.782440464 0  323455.6100285493 5995895.035784755 0  342871.8474798963 5980154.238874755 0  373596.9793292385 6035659.183886081 0  380149.979919221 6048753.88242996 0  376327.9292813152 6042294.581731233 0  329163.3548105369 6004704.843558955 0  350303.9432136903 6007093.032074522 0  383982.6552804571 6015912.664375832 0  345515.490569988 5988567.439252969 0  379019.812877927 6004678.052169549 0  365541.9137639466 6018750.691894444 0  349225.7781606728 5954782.59950515 0  352493.3399767278 5960815.406895458 0  363683.8130458911 5986976.225872464 0  386666.791301207 5975084.583584332 0  368937.6553346639 5966171.092344863 0  400003.9882214358 5968352.273777306 0  328776.0063842635 5992958.433193355 0  339958.4428758043 5999572.344589042 0  354577.7732363954 6012555.454074449 0  328609.6436549741 6048753.88242996 0  382053.0280278458 5988228.496807038 0  330708.6817934912 5978212.973348036 0  372084.7734679543 5978495.086505585 0  358568.2738174705 5971419.415228934 0  328931.2672829705 5998832.905089681 0  323455.6100285493 6031134.266881558 0  405920.1480513444 5972402.215053552 0  405920.1480513444 6031134.266881558 0  323455.6100285493 5972402.215053552 0  405920.1480513444 5960655.804687951 0  323455.6100285493 5960655.804687951 0  405920.1480513444 6007641.446150355 0  323455.6100285493 5984148.625419153 0  405920.1480513444 6042880.677247159 0  346648.7613474604 5960023.05127712 0  342415.3891593561 5966358.988213831 0  350507.6510228226 5971111.740321856 0  391773.9667214506 5994456.117700323 0  338875.8905424621 6026088.827345025 0  361429.1735454847 6010511.262533597 0  389395.7028803263 6025805.543023561 0  392895.6464692951 6043315.288173481 0  332846.8296575367 6019296.633131165 0  373337.4404588729 6009693.515402478 0  336544.3064612215 6043648.151399015 0  348610.2411382072 6019567.839754772 0  381943.4597763228 6042183.394750732 0  355630.0631288611 6028071.82801846 0  363941.5238882306 6035967.852698964 0  328179.67203552 6022271.326978176 0  401066.2857736665 5998807.415073814 0  344387.1099621175 6029612.545574771 0  393435.2235156003 5960233.556458537 0  400735.9970493424 6022675.638064924 0  393708.5772019727 6029179.837160029 0  400609.0696943338 5987857.851798974 0  361753.6614662939 6001152.171757337 0  400766.1144249197 6048753.88242996 0  353363.0524357285 6002630.165620538 0  343248.328463803 6018790.640008039 0  356419.8105951758 6043365.392189237 0  390234.385899412 6000759.497967276 0  368336.1168551637 6000220.532318851 0  328609.6436549741 5954782.59950515 0  387520.8298169724 6035372.992507171 0  400588.0280660195 6035823.299583429 0  329021.6598427091 6043194.252697862 0  393371.710206733 5983576.325812268 0  393638.9721728675 5973623.513063556 0  371727.9212466564 6017113.044457142 0  364687.2762977295 5959941.212693035 0  374995.9462927962 5960346.83186599 0  369841.9126663716 5954782.59950515 0  400766.1144249197 5954782.59950515 0  338917.7109078234 5954782.59950515 0  369841.9126663716 6048753.88242996 0  359533.8454135222 5954782.59950515 0  390458.0471720704 6048753.88242996 0  338917.7109078234 6048753.88242996 0  390458.0471720704 5954782.59950515 0  359533.8454135222 6048753.88242996 0  380149.979919221 5954782.59950515 0  349225.7781606728 6048753.88242996 0  339867.4956514095 6005339.817053361 0  333737.9460226952 6002130.523287664 0  336955.8140048417 6012008.440073739 0  377097.8989316926 6023232.32559834 0  371748.9790486701 6028016.629988787 0  338146.5171983215 5993298.164761053 0  355016.8390227688 6017610.913088997 0  393953.1528190996 6018968.416019509 0  335185.8133477239 5965142.63403323 0  328616.6041642396 5967263.80307608 0  380314.9487662361 5965460.362415641 0  354622.8993466098 6032976.142863722 0  328521.4725131759 6027215.026914048 0  334465.0783479523 6034070.534389696 0  328123.6212682287 6009699.206425843 0  381889.5169855529 5973936.741901617 0  359122.3484437474 6036790.002992895 0  386341.6533148278 5979963.279841923 0  400798.2159679119 6012477.871311778 0  388538.3765260249 5967461.292146791 0  340833.8784183678 5975728.708105717 0  355307.6239213505 5988552.151815021 0  362181.4274823388 5981261.937800813 0  353784.0322742948 5981044.538811012 0  358045.1698423899 5978741.391518688 0  328423.7350325213 6036912.015930048 0  366897.6876966125 6027277.723668203 0  347355.1745641421 5978532.307510624 0  376820.5060332146 5979033.270735624 0  349378.1778589479 6024378.632814493 0  327189.2282939323 6016451.253924556 0  338433.8773236172 6036753.902881841 0  350141.9760340559 5987605.90026687 0  363794.7083927878 5991713.491814731 0  350325.1285660182 6035273.515460094 0  382355.9358007369 5983507.499638396 0  327107.0747437811 59811
[...]
<PointData  Scalars="f_78871-1"> 
<DataArray  type="Float64"  Name="f_78871-1"  format="ascii">4.5750258904493167e-23  4.7162339989419069e-22  -2.2149329932404115e-17  -6.1394820810846164e-21  4.6715269483205313e-11  4.9133091324851518e-16  -1.2046720590907652e-15  -5.3384487590018733e-17  -5.3177857558592704e-03  -8.9657931633862599e-18  5.5281471174570825e-11  5.5767175553761395e-12  -5.2487424818177562e-19  -1.6528355746742324e-09  1.2387678385485958e-19  -3.0214535108192001e-16  -6.1704910243696090e-15  5.6130511787183563e-11  9.9499333640726942e-08  -7.7600788051405370e-05  1.0712424537557219e-07  1.0042607096352139e-18  -3.7964362778095645e-18  1.9017093106427608e-11  1.1790656579848499e-16  4.3341775306333360e-04  -9.9500283334622495e-12  3.4108022604141960e-07  -4.0865031363890205e-13  1.6125710350769109e-15  5.2772787576529224e-11  -8.3178160285927468e-17  -1.1440274730386230e-16  -4.4096092652860285e-12  -3.5530743528448441e-14  4.0507223541036592e-12  5.4434456062796444e-06  -4.6139310867990978e-08  2.1287330225507608e+00  5.2642421834122902e-09  -1.4176265907048103e-04  -2.3622681284538373e-15  1.9935015587602167e-19  -3.1638128061056253e-18  8.9956679731386867e-15  -2.9774871291115281e-19  -2.1183318452082199e-20  1.5649647077911482e-10  2.0288203575363973e-16  4.4002743774434042e-11  -1.7062179824696196e-16  -1.0862109980303867e-12  4.6852642377084544e-13  2.9889942977495304e-08  2.3004725105585414e-06  1.0654779381624522e-02  -3.1216799820155460e-08  2.0257307780730641e-16  -3.0966923811412986e-20  -2.0927781465285624e-19  -3.3393451647775864e-17  3.2022798235767736e-16  -5.6910176587960517e-20  -1.0677431492724629e-16  4.2701056262531929e-12  4.5066826221436376e-08  3.2037573306639689e-08  1.6570659593688328e-09  7.9683892446693974e-08  -6.9711085259932589e-10  1.1317939715731373e-16  6.6982108966038967e-09  4.1011287525380885e-08  6.7942761945464509e-16  7.8885909334551367e-10  -1.5962652171670712e-10  1.0741950085372495e-12  -8.7389428270834030e-20  -5.4186939652499632e-13  1.3278773042924937e-14  3.2725888202832916e-17  1.6145544008158968e-02  -4.8864736960339359e-12  5.3437977667784624e-06  -1.5838709723753799e-11  -2.2223740952217796e-18  3.1198726111386053e-17  5.5243757696341599e-14  -9.0379461651111287e-20  3.2696588566550769e-12  -2.6680685292331708e-16  2.5250161886700550e-12  7.0268813849156547e-17  5.7380665920627164e-11  2.9504305697186670e-12  8.1354235645645698e-11  1.4123010402786251e-01  3.4362727780597031e-15  4.1288079492402026e-18  3.4543906992633456e-16  2.1267502776472739e-08  -7.3556442656355539e-05  3.8884710972418297e-05  1.1929001296837576e-17  5.5555642726972471e-14  -5.7917069039195121e-10  1.2318556804123111e-13  5.1099796544994624e-11  4.5818531497709871e-17  3.3762661272508669e-13  3.2456200728578374e-13  -2.1293837639253518e-15  -3.3738265528489360e-09  1.9382692891567548e-09  9.0794154761339607e-13  5.5235342127865844e-03  3.8964376404279119e-05  -6.6113959194066222e-16  3.2300811178866460e-07  5.6843625172623931e+00  2.1882545573059200e-10  1.0292046863090018e-01  2.1112815332217764e-04  1.9764626346621471e-08  4.2550482575431031e-06  1.5523901209226902e-17  2.4813656500221895e-10  7.6326509549037509e-07  -1.1423327654496490e-15  -9.3046949764994073e-21  7.5278573820556783e-13  5.5118157127491023e-08  -4.7123913259641073e-16  2.8098067165342007e-13  -2.8849562689371483e-13  3.4864710879035081e-17  -2.2094642920365263e-15  1.0182859857646463e-14  -7.1391510851379792e-08  5.9443473704814550e-10  1.3564683896450705e-09  -6.5100474254668736e-05  2.9213340650157854e-06  4.5646544429077427e-18  1.4349858191756481e-16  8.7386116291388364e-05  -7.0929083098334337e-09  -1.9864723975457251e-12  8.1375329497920859e-13  3.5575390535183630e-14  4.9627034841785256e-09  2.1218593442392130e-06  -6.1681925159999012e-22  5.1053206773441781e-03  9.9591778584158087e-17  2.4653810682785854e-06  -8.8694288748041131e-12  1.0814341690690383e-13  3.1815401530171752e-20  -1.3293660518619908e-13  -2.7929176876003621e-16  -2.9911980797837729e-19  2.1285159397019411e-16  4.5474539104490996e-21  -2.0528078202686492e-13  -3.1395857341123512e-18  6.1293278883615722e-20  -3.8672394171923792e-18  2.2796579031896758e-16  1.2498474007054056e-12  3.8762987080559809e-06  2.0606235696195507e-13  -7.4572976361237373e-05  1.0164752182680051e-12  7.9176595264990145e-18  8.6670137475782982e-14  4.2424577122643602e-06  -3.5108346682445638e-19  -3.1342881031529188e-10  4.7587846890071625e-17  -4.0492364865213073e-11  -8.1650908464405746e-14  8.4943810730182236e-17  1.0033372103403753e-09  -2.0118448338028312e-13  -3.4868414751085426e-14  -5.1703362326184711e-14  7.3143470064480390e-14  4.5235166653846073e-10  6.5284793202579480e-03  1.6175192319204651e-20  6.9156121331243650e-05  1.8465496409899765e-10  5.7890698245222599e-17  1.5976475696663494e-06  6.4512269127167565e+00  2.3763496271521956e-21  6.9524451716674615e-15  2.6143802709854289e-17  -1.9944265905132346e-22  4.3677464555439946e-08  -7.3484382015078401e-11  2.6258365172396245e-06  -3.4458065085302635e-14  2.3887162321392691e-15  -1.3556180032409473e-16  -1.1959022494263633e-17  -3.3952262458137147e-19  3.9169797760858641e-17  -3.5579599453764450e-16  2.5895010633066934e-19  -1.2992683818269115e-19  -5.9674927288920436e-18  1.3099325634536744e-17  -9.0189030444291522e-17  1.7068100999563862e-18  3.9873064246591388e-09  1.1337657585966869e-11  6.4282616565847580e-12  3.4726720007245204e-09  4.0939095455012132e-10  1.5959141552171071e-11  -5.7053230304795471e-08  6.8299172304880834e-11  2.3264027886136054e-18  1.2358454363888669e-18  1.4420071048640021e-11  -1.4855201359323055e-12  2.3747178994319418e-17  1.2286661479176848e-17  3.6396431812423701e-14  1.0702384784441521e-08  9.4408249300001474e-13  1.5251247681609687e-06  -2.4852981744858320e-11  -1.4713696233768981e-11  4.2617000548774575e-14  1.0697242134077796e-06  5.1976085748218678e-08  2.1168368506747491e-09  5.3132468760241036e-10  2.2319803135196590e-19  6.7371685805317397e-10  3.6859224266879589e-11  7.2139227716620748e-07  -1.0684830606920975e-10  1.8687758075959393e-16  -5.2008335326304686e-18  1.6012848525640616e-08  6.1760194911377256e-04  1.4987261616457765e-13  1.9182813308331299e-04  -6.0195891740767771e-17  6.4931778799045322e-13  -5.6277754469744058e-16  -4.1525207587103210e-03  -8.5809855323233192e-11  5.3163727321468016e-10  5.8285312065187274e-08  -3.2616929334802115e-16  -7.9386775726564010e-16  -2.3129186212653425e-13  -6.0865498436910899e-18  3.0584666984916362e-16  4.1945451193528590e-08  2.0967586916632824e-06  1.2368686672375995e-16  -1.8265295199981885e-04  3.6840306577347895e-13  2.3923548045093830e-07  4.1148402742043525e-05  3.8510162068285703e-01  3.4642366933929757e-08  7.8285841500640954e-14  -8.0822660603677664e-09  1.1194796529286497e-09  8.1870819900302870e-09  7.7044993419733489e-09  6.6054280394255491e-05  8.7384818968544644e-11  1.5537385130383012e-09  4.6388201111419271e-10  3.2805244550876438e-06  1.9053358958735946e-04  3.6243380047400626e-05  5.0492229451018502e-17  4.2351174557748843e-09  1.6179745435806899e-20  3.8971904263169452e-14  -1.8124362053061935e-09  6.8668752223834877e-11  7.2056239177159912e-10  1.8303272537989977e-18  6.2083003650526437e-11  -1.1955427198629026e-12  5.9541816507640800e-03  9.5000754287954563e-15  -2.8821782062016660e-19  -6.9718763688998122e-18  -2.3867994107166627e-06  1.4040135462932315e-14  7.8223159430824503e-13  5.8633452216665192e-18  -1.4152829334210112e-11  1.0130158465487902e-19  -5.5885603351698143e-19  5.1005261041357746e-20  1.6004588176451964e-02  4.8242291470754999e-17  4.3295489575538139e-03  4.2158550537555364e-16  3.3900697185437781e-20  1.6851536769722186e-15  -2.8539214679100480e-13  -1.0682751892086912e-12  1.4547749523069466e-13  -4.8460225498811194e-10  1.9240237355574357e-12  2.9937985481914111e-14  -4.0943758118116163e-16  -9.7212156963205887e-13  -7.5978352927991282e-07  -6.8149274750578165e-05  -6.8388525164619862e-06  -1.2993034924516455e-16  -5.7540625772458946e-11  1.9898110905724452e-13  1.9590843052290030e-21  1.6919714664922835e-19  -5.2820610487935860e-13  -2.6408388496391393e-12  1.1673961586073593e-11  2.1595154013773440e-12  -4.1792573522262922e-15  -9.0519023059369354e-16  8.4239924297868630e-16  2.6294383095622708e-03  7.4895569336591878e-10  -4.1752587824753224e-14  1.2025775031340297e-07  1.1928894652605077e-02  7.7866442526623655e-03  3.0644957987300604e-03  -8.2442663602849426e-03  -1.3836885252775837e-16  1.1886641190335026e-06  9.1577654633816771e-12  3.2002795540157453e-12  -8.2009949933641284e-12  -3.3699953355388369e-11  -3.6459204672922565e-22  6.9418714459181294e-20  -6.0469252968669841e-08  2.8821016701866315e-13  1.0364705172863609e-12  -2.4216755501353839e-06  2.1069058615755248e-14  4.6498155339474702e-08  9.8778076688586462e-17  -2.1602744907729990e-09  3.2328116934027877e-08  -7.4808895031496434e-17  4.2737758545530168e-19  -1.2829987475474218e-04  -1.1916212391841192e-08  2.1334041839516510e-12  -1.8754075786338890e-12  2.1125941090232350e-12  -2.7628552833114742e-20  6.9330679316311309e-18  1.4904899107598952e-16  3.6952861306667854e-03  1.9627106976958023e-09  -1.5825080983971659e-15  -1.9675099746189122e-15  1.7408060330432761e-12  1.6756892610454405e-12  1.5318509772189568e-14  -2.4454959551667187e-16  2.8266940719032983e-08  -7.0518997621573820e-08  1.0999018071641736e-11  -3.9231810602855769e-19  2.4696016489688586e-13  1.6767785128964576e-10  -3.9126351876004557e-17  -6.3422859825984132e-13  1.2487909521871233e-04  7.7074001313938556e-10  -3.5394960301787926e-12  2.0044098811628036e-14  -1.5791104160085725e-15  -5.2316992346536603e-20  1.6540693361943341e-13  2.7369426824878052e-05  2.8406157251775697e-11  6.3033550712847576e-13  -1.2914285686635741e-10  2.0559666312078520e-11  -2.2184701534408828e-12  6.8159542991602495e-09  7.9356698243827633e-10  -4.4977875139307369e-17  -5.9410979817151606e-14  4.5126844519194980e-08  9.8138355216654417e-09  -2.4861763681728630e-09  -3.2035468720252754e-08  7.0563529923430776e-06  -1.8888761678124128e-10  -3.0672560122123506e-09  -5.1867459785818945e-14  -1.3021658061683965e-14  1.4955231635164593e-05  6.5967689975721368e-19  2.1997244037733654e-04  1.0625806467745624e+01  4.7254705809598970e-19  1.2075326705252672e-15  7.1469179126193243e-07  1.6799534661042856e-10  6.1732181476195885e-05  3.5269736301145563e-14  1.4061157992780329e-17  4.0682418026464474e-17  2.7798399033387287e-17  -3.0027128505851145e-16  3.0310381092072586e-09  3.5735271420350310e-08  5.9217990266900099e-13  5.9933438625575490e-12  2.5982933366822424e-17  3.0571915566594448e-06  3.8546298267155471e-06  4.9471585736814772e-05  -3.5370555058726502e-11  -7.0867909571074026e-14  5.2770985384844507e-10  -3.1421771437756306e-06  -1.2248167154825877e-07  1.7058913422950756e-05  1.0637312717191566e-09  2.2442346141464420e-10  2.0055763337940924e+00  -1.9481504324526930e-18  1.1992009103865311e-10  -7.4970037357942082e-11  -2.9954175344075793e-09  7.1215831562851673e-14  -7.3009839782611995e-13  3.3484017621595132e-17  4.1425539649289842e+00  1.0036856791379982e-06  4.0849224588488000e-13  1.1359008003325048e-07  9.5340045050266251e-11  4.6265861464454624e-16  2.1733039314626702e-09  4.1460277911795132e-12  7.2027169086455514e-06  7.0127757308324332e-15  -2.8404614875868995e-15  -1.9379419824294868e-13  8.1169249013784204e-11  2.6632254552609183e-18  -1.3139583098331778e-12  1.5681229844190363e-16  -3.3101770142689947e-09  3.9935179221398084e-10  -1.8069486437153247e-07  2.1318038167627935e-15  1.2406417749901592e-09  2.6440526588339599e-12  4.1527717442883685e-19  4.1450156357658576e+00  -1.7794476691439820e-16  6.2523340115058326e-11  1.5170205652897347e-11  6.3440632627328172e-08  5.2166688693525785e-07  -2.2046197552765678e-16  1.5675021976942054e-09  1.2592719844813803e-02  -6.9047698845879081e-14  1.6129448511592659e-10  1.1403868965697622e-12  7.7341724852110525e-13  -1.8428175003081211e-16  3.2813756279421625e-12  -4.6771420577965916e-07  5.5055631958226883e+00  1.9117039422123962e-10  7.3249345700585117e-12  2.5582993991323168e-20  6.6618086294928184e-10  -7.4431114221229817e-10  1.8760393840184882e-06  1.0355236801738113e-14  1.8276898339114480e-14  8.4297213789333027e-16  8.9988795466502321e-08  2.2348171264280468e-18  2.7483549056619031e-18  -2.1357504212873504e-18  -1.4012325713254928e-16  1.7916923427504552e-08  1.9250226830300803e-06  1.5101143199952307e-07  8.5129923657078101e-16  -2.7399893557631250e-08  6.7195073967755589e-13  -7.9356600820172743e-10  2.8870412231618740e-14  3.2404234431320856e-05  7.3227841470041155e-07  -6.0414321301625545e-10  -9.3375194433506146e-12  1.2998815780627007e-09  -2.6674850565775588e-11  -7.9737511928248354e-03  8.6377571601646742e-05  7.2266682534543566e-06  1.0023279485208088e-08  -9.3334163839919257e-16  8.7492493194035086e-04  -4.4687926416750739e-17  9.3183867012345329e-17  -1.8680563543592553e-15  -4.4925805755023287e-16  2.7460240568030874e-16  3.8478251230659871e-14  3.0603407866947156e-20  1.0743323818590996e-07  5.7993410607840657e-16  4.4259589715432821e-19  -2.9797992157513575e-17  6.3951839676312730e-14  9.1866654709950670e-14  9.1999723016779968e-10  -6.4782013049527722e-22  -1.2621555251566546e-21  -2.1058646047666335e-15  -2.9821808055886212e-22  6.4970459687652025e-06  3.0062584185584544e-08  5.1803621905476727e-05  3.7018665950870296e-04  4.7285705653943896e-14  2.7060158525464147e-05  4.8089185966154656e-20  4.8928811470202948e-08  1.4544711276464966e-13  3.8666889646224741e-12  -6.6609107145141477e-11  -1.1472451951050292e-11  -3.9759455911364276e-09  1.1788530693987079e-19  3.1473365611076358e-19  -2.2048248529628631e-17  -5.3441361260994451e-18  -7.0036473469424653e-16  7.8397674128271713e-13  8.0191757943990247e-09  1.8645288020758469e-10  -4.3393999306766326e-17  -1.4879483235179404e-09  1.2104200214896722e-09  -4.6668134613675659e-12  1.0228830453382287e-06  1.2712178761860542e-10  -4.3961184196614481e-18  9.1819363492802963e-16  4.1977376307652689e-16  9.9050054704601685e-13  3.3423442038474409e-12  -1.5184620733066156e-15  -1.9809830837387226e-17  7.4839803033749846e-14  6.1520113946460229e-14  1.1490004104193580e-13  1.4235446591561793e-16  5.8709979337681242e+00  1.9488330033980202e-02  -4.4231633634829632e-10  -7.5236911851966452e-19  -9.2279209264212719e-17  -2.5522151944019383e-17  -7.7850536011166637e-16  1.4665432261158124e-20  1.1001561326160375e-15  3.0570009867968640e-20  4.6332132900117964e-03  -5.2109327817298264e-03  -3.2034595736688399e-14  8.7223050182244802e-13  -1.1227985805142869e-12  1.4160408980078003e-16  1.6974455402323179e-17  -6.0290158512711790e-13  2.6990861151793370e-06  9.9741264752091206e-08  6.5469610212616865e-05  1.8669713525267777e-10  4.7106952734021608e-06  -2.6808281119148914e-04  7.4797678922984253e-03  6.3771230888127376e-12  2.2095540148306346e-12  6.3761781089483251e-13  -1.2610421669810015e-14  -1.0923639775802924e-15  5.4084305443897314e-19  2.1688165113093547e-12  2.9985215309899101e-17  1.5014185345647349e-19  -3.4419630162417496e-14  8.0722860828100470e-16  -1.3580534676879544e-15  -2.8796651778463678e-20  -7.1927463888515637e-19  -1.8367284160467864e-12  -9.9188006829842130e-18  5.2241591578217239e-11  1.3149546394773576e-13  7.2140092563016811e-13  2.1019819457233537e-14  1.0419301853233119e-06  1.2291872446404232e-11  -9.1314505067234961e-11  8.4612988420488108e-13  -1.2938915563304145e-19  -1.1845026014538122e-18  -4.8236480434397219e-18  2.3352184428173847e-20  -5.5138215454184403e-18  7.4150354036843314e-20  2.5190591035690935e-11  -7.8349985677567761e-11  6.6126163262207994e-14  -1.0221720660637801e-13  -2.7401571886586992e-09  -5.9071146410117366e-08  7.7317075734775293e-11  8.4785465154184009e-11  3.4619945992384166e-09  1.0366213726416604e-10  3.0432790298338910e-12  -1.9128626732850298e-15  -4.4144286100685535e-18  5.3318411567477684e-14  2.8928702408154015e-13  6.1778621845148849e-14  4.0140977601545833e-16  2.6146242021497372e-04  -5.6200737431238479e-11  -1.2375419867318420e-15  -2.3425884812666539e-06  3.1489693588650934e-14  7.5944207450810777e-13  3.6550983563954840e-13  2.8917454081085921e-10  1.4667702454217229e-02  5.2603543975548027e-21  -2.1342051004502493e-21  7.3937134280156278e-06  -4.3107599980296238e-20  -4.3038515439281042e-16  1.6467553351683499e-03  1.8683449271749092e-01  -5.2601370767161619e-03  -1.7601440714312269e-17  7.1517414462791372e-16  1.0600521190170843e-02  -8.2725174474080228e-09  -7.9786337713399557e-18  -6.4058059036652248e-03  2.7139271218657779e-16  5.7973520091005038e-21  1.6118734289527147e-12  -9.9058486365600533e-19  -2.0440673682666136e-15  1.5169992745661448e-09  -6.6711515395554199e-17  6.3364197282635027e-11  -7.4804817744839312e-17  -8.7132544248056214e-05  -1.4939130418531551e-11  -3.8204466008522108e-03  -4.8271564836656820e-09  -1.8703114908674401e-15  4.1345993934452835e-06  1.8228956751210016e-13  -4.8825483277788573e-11  6.1107557923233878e-18  1.8944628230680643e-11  -1.0235727072777971e-16  -5.5413653013735288e-18  -2.0310138742389711e-10  4.6152479809623462e-10  -2.9744818524814705e-17  -2.3846239843872483e-10  2.4492036414930682e-06  2.3402949039427098e-07  3.7412126865957105e-05  -5.1518972358397717e-16  -6.2596086481561948e-14  1.3502893600111228e-10  3.1012259400845841e-11  -7.5640246081487463e-05  -3.7652980400115903e-16  3.5942510214599719e-16  -5.6939509832529439e-16  6.4461363399572827e-14  9.6537409592712553e-13  4.9590870624963263e-16  -1.6425653161144294e-16  5.7540550915345827e+00  6.3283535758718954e-03  -1.4900580252696142e-06  1.1893808819585521e-04  -8.7357404368042237e-07  4.1341615509034362e-05  1.4711567895137829e-06  4.2802843954039994e-10  1.8306286170835018e-11  3.7346117857589624e-06  1.1048100089792301e-19  -1.5080421733109629e-11  2.5169659871620042e-16  1.0837364262634183e-07  -2.1061399297680092e-09  -1.0213460009358223e-08  -7.2050594773389444e-07  -1.6000119245744763e-17  -8.8936313459208245e-18  4.8833402213863311e-09  1.5442264298863068e-11  -3.9719820358454865e-13  -6.6313952237687395e-17  2.8098684571832514e-14  5.2010774990514018e-08  4.9355359988356357e-08  -7.9888077447986447e-18  -1.1034183907059212e-17  2.0672986813247174e-14  1.4554688445514467e-10  1.9386892477504729e-10  -3.8596618849158091e-11  -2.8336897528074489e-11  -2.2657268526559632e-09  -2.9206897087284945e-11  -2.2470571777201902e-06  -3.2902170562972902e-20  -4.3666447162644963e-18  -2.7715445107044811e-17  3.5934584894921007e-11  1.2220340299003039e-12  3.2801664468832790e-20  1.0098137549573429e-19  -1.2370158485112266e-19  -4.8722177172971460e-18  -4.0906433791022532e-11  1.1173743311175773e-10  -2.6795943588541606e-12  5.9595192176224603e-08  7.3732741951037479e-08  3.2607770109596702e-08  6.8604198052503489e-16  1.7972820128086880e-08  4.6705034060555868e-14  5.5510768123079488e-07  -8.7828705294101654e-19  -8.1854991035031196e-14  1.7400913360583287e-14  2.6382642667148216e-13  5.3843327884738966e-14  2.9087277664396961e-13  3.8547714776059919e-12  6.1347331627435876e-12  2.3474668943672584e-12  5.9128155155316833e-12  5.2654653699479814e-10  -2.0665810481438112e-19  2.1566212519243849e-23  3.1271602207943647e-16  -6.8416591929096428e-17  5.1333854329715808e-19  3.8361898634911738e-17  7.3476387845924640e-19  -3.0627169079741396e-17  5.3328573009606680e-16  8.8536401325536264e-16  -1.7793400768818512e-16  1.5051990595144805e-17  -4.1739496122888081e-17  -4.1101785938604879e-22  3.6336716834829593e-18  4.8457645305691342e-20  3.3633621737890734e-21  -1.3667308143189850e-17  8.3027398831751212e-02  -1.2763823199994017e-07  4.8065849192345578e-09  6.4966069330440786e-09  -7.2723718547624502e-18  1.1603636805928409e-18  7.2647674829389866e-17  4.9225693516598657e-20  5.6585760541006115e-07  2.2887044304000841e-12  3.5438636772985856e-18  3.3661258385021714e-05  -1.9093464905404040e-19  -5.0352966754699031e-10  1.0416049394787670e-12  2.6548499652293616e-07  1.6261638386096051e-15