<?xml version="1.0"?>
<VTKFile type="UnstructuredGrid"  version="0.1"  >
<UnstructuredGrid>
<Piece  NumberOfPoints="2745" NumberOfCells="5356">
<Points>
<DataArray  type="Float64"  NumberOfComponents="3"  format="ascii">323455.6100285493 6048753.88242996 0  323455.6100285493 5954782.59950515 0  405920.1480513444 5954782.59950515 0  405920.1480513444 6048753.88242996 0  405920.1480513444 6001768.240967555 0  323455.6100285493 6001768.240967555 0  364687.8790399469 5954782.59950515 0  364687.8790399469 6048753.88242996 0  364687.8790399469 5996367.117560402 0  323455.6100285493 6025261.061698757 0  382226.6271443229 6022560.499995181 0  405920.1480513444 5978275.420236353 0  323455.6100285493 5978275.420236353 0  353897.8957397301 6022560.499995181 0  344071.7445342481 5954782.59950515 0  385304.0135456456 5954782.59950515 0  405920.1480513444 6025261.061698757 0  354379.8117870975 5975574.858532775 0  381582.8168806895 5978840.396198289 0  384950.2598624413 6001768.240967555 0  344643.0480768835 6003429.02033719 0  344071.7445342481 6048753.88242996 0  385304.0135456456 6048753.88242996 0  339717.0321562298 5986078.187627405 0  337515.036058786 5969821.016310448 0  368062.2614420265 6013076.224998265 0  368062.2614420265 6032044.774992097 0  393987.6142659165 5988729.699941677 0  405920.1480513444 6013514.651333156 0  392856.2821527076 6034589.119828064 0  393514.9611654527 5968369.338068204 0  339399.8087404341 6032061.482581838 0  323455.6100285493 6013514.651333156 0  374995.9462927963 5965504.865595459 0  354379.8117870975 6037976.901948514 0  338123.9088969378 6017031.529131207 0  367397.3120126425 5982072.559192053 0  351882.5752379905 5991998.990225234 0  376945.425450199 5991232.708824487 0  392265.0061656896 6013300.936254065 0  357029.7426706699 6006608.947964352 0  380093.6207558212 6036880.127749795 0  323455.6100285493 5966529.009870751 0  405920.1480513444 6037007.472064359 0  405920.1480513444 5966529.009870751 0  323455.6100285493 6037007.472064359 0  333763.6772813987 6048753.88242996 0  405920.1480513444 5990021.830601954 0  323455.6100285493 5990021.830601954 0  362879.3643765316 5966837.319094267 0  348367.6438548031 5965604.161682394 0  334493.1989038612 5996935.948935225 0  395068.5043068817 6023875.372615605 0  348216.0324377587 6013504.844950221 0  379305.9090074943 6011603.390019651 0  372523.5158233726 6003480.000732267 0  395435.2039568929 5999384.346358113 0  395612.080798495 5954782.59950515 0  333763.6772813987 5954782.59950515 0  395612.080798495 6048753.88242996 0  374995.9462927963 6048753.88242996 0  374995.9462927963 5954782.59950515 0  354379.8117870975 6048753.88242996 0  354379.8117870975 5954782.59950515 0  335074.5981535012 6007206.680367459 0  391925.2695590468 5978591.908877409 0  371969.1707190623 6022560.499995181 0  383872.162544519 5969415.106147043 0  358038.7139835292 5984533.09712744 0  369699.869182786 5973102.2359358 0  369841.9126663716 6041099.453006387 0  343176.7440329155 5994428.220622956 0  362933.5332293962 6024385.235173292 0  330640.1760208776 5984148.625419154 0  348684.7494355051 5983110.856817525 0  399094.9690929834 6007537.420809742 0  345447.6324516311 5974162.84917082 0  332859.7749513451 6039150.972778062 0  344517.044630671 6024057.945416138 0  332973.1214415312 6025037.914505113 0  341428.0126373461 6040493.820728126 0  385874.264691618 5992757.40885039 0  350337.3662538711 6030387.535304286 0  359887.2373602368 6016186.250094838 0  377097.8989316926 6029115.217702097 0  338917.7109078235 5961484.016839475 0  329495.5261590715 5972402.215053552 0  336644.7280634616 5978216.610794215 0  330688.6715098422 5962480.256438018 0  359899.8039476132 6031963.415584587 0  399746.255941904 6030426.523907755 0  385511.6875144855 6030368.508996127 0  387377.735783329 6040763.821024337 0  398832.192399829 5974431.100387635 0  387992.9498994246 5962432.032572681 0  405920.1480513444 5984148.625419153 0  364925.7641745284 6005782.953640081 0  361769.877068089 6041226.651684469 0  398452.9199001931 6040850.732439541 0  398946.6205243983 5962252.502309519 0  362305.5577564609 5975984.89789681 0  356822.8065216601 5998470.186307689 0  386900.7115926162 5984820.732438302 0  329528.0119279922 6032067.230024892 0  331139.6939744562 6013813.572928222 0  398457.5876798834 5982541.698799337 0  405920.1480513444 6019387.856515957 0  398685.5166750694 6017257.578706384 0  348587.9424884976 6042755.309150081 0  369841.9126663716 5960143.732550304 0  380149.979919221 5960143.732550304 0  359533.8454135222 5960172.384722514 0  377147.8814772839 5972649.581024994 0  341756.3455763521 6010124.092444684 0  355615.8176864882 5966311.193813809 0  369144.4338274571 5989807.770003954 0  375185.9047422862 5983510.422041401 0  323455.6100285493 6007641.446150355 0  391856.7960121195 6005888.565703365 0  371978.0245217044 5996361.134308098 0  405920.1480513444 5995895.035784755 0  378877.1880032702 5998073.745937059 0  359056.6617417652 5991643.489540118 0  399278.8743430426 5993436.466134224 0  386116.8775939071 6009922.097099247 0  323455.6100285493 6019387.856515957 0  388994.7833819839 6019826.789191471 0  348897.6207366391 5998116.079250046 0  345456.3301153719 6035064.814295612 0  323455.6100285493 6042880.677247159 0  334124.3013408988 5990072.953472659 0  377097.8989316926 6018059.782440464 0  323455.6100285493 5995895.035784755 0  342871.8474798963 5980154.238874755 0  373596.9793292385 6035659.183886081 0  380149.979919221 6048753.88242996 0  376327.9292813152 6042294.581731233 0  329163.3548105369 6004704.843558955 0  350303.9432136903 6007093.032074522 0  383982.6552804571 6015912.664375832 0  345515.490569988 5988567.439252969 0  379019.812877927 6004678.052169549 0  365541.9137639466 6018750.691894444 0  349225.7781606728 5954782.59950515 0  352493.3399767278 5960815.406895458 0  363683.8130458911 5986976.225872464 0  386666.791301207 5975084.583584332 0  368937.6553346639 5966171.092344863 0  400003.9882214358 5968352.273777306 0  328776.0063842635 5992958.433193355 0  339958.4428758043 5999572.344589042 0  354577.7732363954 6012555.454074449 0  328609.6436549741 6048753.88242996 0  382053.0280278458 5988228.496807038 0  330708.6817934912 5978212.973348036 0  372084.7734679543 5978495.086505585 0  358568.2738174705 5971419.415228934 0  328931.2672829705 5998832.905089681 0  323455.6100285493 6031134.266881558 0  405920.1480513444 5972402.215053552 0  405920.1480513444 6031134.266881558 0  323455.6100285493 5972402.215053552 0  405920.1480513444 5960655.804687951 0  323455.6100285493 5960655.804687951 0  405920.1480513444 6007641.446150355 0  323455.6100285493 5984148.625419153 0  405920.1480513444 6042880.677247159 0  346648.7613474604 5960023.05127712 0  342415.3891593561 5966358.988213831 0  350507.6510228226 5971111.740321856 0  391773.9667214506 5994456.117700323 0  338875.8905424621 6026088.827345025 0  361429.1735454847 6010511.262533597 0  389395.7028803263 6025805.543023561 0  392895.6464692951 6043315.288173481 0  332846.8296575367 6019296.633131165 0  373337.4404588729 6009693.515402478 0  336544.3064612215 6043648.151399015 0  348610.2411382072 6019567.839754772 0  381943.4597763228 6042183.394750732 0  355630.0631288611 6028071.82801846 0  363941.5238882306 6035967.852698964 0  328179.67203552 6022271.326978176 0  401066.2857736665 5998807.415073814 0  344387.1099621175 6029612.545574771 0  393435.2235156003 5960233.556458537 0  400735.9970493424 6022675.638064924 0  393708.5772019727 6029179.837160029 0  400609.0696943338 5987857.851798974 0  361753.6614662939 6001152.171757337 0  400766.1144249197 6048753.88242996 0  353363.0524357285 6002630.165620538 0  343248.328463803 6018790.640008039 0  356419.8105951758 6043365.392189237 0  390234.385899412 6000759.497967276 0  368336.1168551637 6000220.532318851 0  328609.6436549741 5954782.59950515 0  387520.8298169724 6035372.992507171 0  400588.0280660195 6035823.299583429 0  329021.6598427091 6043194.252697862 0  393371.710206733 5983576.325812268 0  393638.9721728675 5973623.513063556 0  371727.9212466564 6017113.044457142 0  364687.2762977295 5959941.212693035 0  374995.9462927962 5960346.83186599 0  369841.9126663716 5954782.59950515 0  400766.1144249197 5954782.59950515 0  338917.7109078234 5954782.59950515 0  369841.9126663716 6048753.88242996 0  359533.8454135222 5954782.59950515 0  390458.0471720704 6048753.88242996 0  338917.7109078234 6048753.88242996 0  390458.0471720704 5954782.59950515 0  359533.8454135222 6048753.88242996 0  380149.979919221 5954782.59950515 0  349225.7781606728 6048753.88242996 0  339867.4956514095 6005339.817053361 0  333737.9460226952 6002130.523287664 0  336955.8140048417 6012008.440073739 0  377097.8989316926 6023232.32559834 0  371748.9790486701 6028016.629988787 0  338146.5171983215 5993298.164761053 0  355016.8390227688 6017610.913088997 0  393953.1528190996 6018968.416019509 0  335185.8133477239 5965142.63403323 0  328616.6041642396 5967263.80307608 0  380314.9487662361 5965460.362415641 0  354622.8993466098 6032976.142863722 0  328521.4725131759 6027215.026914048 0  334465.0783479523 6034070.534389696 0  328123.6212682287 6009699.206425843 0  381889.5169855529 5973936.741901617 0  359122.3484437474 6036790.002992895 0  386341.6533148278 5979963.279841923 0  400798.2159679119 6012477.871311778 0  388538.3765260249 5967461.292146791 0  340833.8784183678 5975728.708105717 0  355307.6239213505 5988552.151815021 0  362181.4274823388 5981261.937800813 0  353784.0322742948 5981044.538811012 0  358045.1698423899 5978741.391518688 0  328423.7350325213 6036912.015930048 0  366897.6876966125 6027277.723668203 0  347355.1745641421 5978532.307510624 0  376820.5060332146 5979033.270735624 0  349378.1778589479 6024378.632814493 0  327189.2282939323 6016451.253924556 0  338433.8773236172 6036753.902881841 0  350141.9760340559 5987605.90026687 0  363794.7083927878 5991713.491814731 0  350325.1285660182 6035273.515460094 0  382355.9358007369 5983507.499638396 0  327107.0747437811 59811
[...]
<PointData  Scalars="f_3063-1"> 
<DataArray  type="Float64"  Name="f_3063-1"  format="ascii">-2.4178845475641386e-27  -1.0250983979053938e-26  1.6152238787946015e-21  -4.4484758377553478e-25  -1.8030154430353880e-15  -1.4491402810297708e-21  1.1533907354279058e-20  4.3922523938458181e-23  3.4379754592057191e-07  -9.5192396468688562e-23  -4.4814209357889009e-16  5.3439886963885809e-17  1.5862777739439880e-22  -4.7679498131702881e-15  3.2516780095906864e-23  -6.1511984593049979e-20  -9.0373599941146836e-20  4.9894118375953941e-17  5.3570600780060159e-11  -2.6005370511103577e-10  -3.1299974886481030e-14  6.4541410959878092e-23  -1.9388331216488810e-22  -6.6257809752435448e-18  -1.0036230080472932e-21  -1.5241094969169649e-10  -2.4756677401777519e-17  2.0067525476814765e-11  -3.6116037156492812e-17  -4.0304335985317931e-20  -2.7730520662950145e-16  2.9116764016105792e-21  -1.5485188763055317e-21  -3.2465403410469418e-17  -9.4043152364195453e-19  9.0769409059233695e-18  6.4006004050851860e-12  -3.0646243990648997e-13  1.2965818025340972e-05  4.0408186151997120e-14  1.8121113312179859e-10  1.7367320238930807e-18  -1.3769680176229208e-24  8.5795921519990642e-23  -1.7921433089139748e-19  1.8671417591853095e-23  -4.7549719127858464e-26  5.3485068635192446e-16  -1.1022081539732342e-21  -5.5549386521320016e-17  -3.1920448561052009e-20  1.9563004499100279e-18  -9.0887761560251976e-19  -6.9680496303975222e-15  2.1441750613402815e-11  5.0865474205270190e-07  1.4555766925441783e-11  1.7286336888610087e-20  2.0285173598562938e-24  -9.9726964065613667e-24  -2.5148819415196449e-22  1.1250410965088399e-20  4.5388803923981887e-23  2.0534123626140499e-21  1.2286502109615034e-17  -4.5673140736960271e-13  -3.1464910917598775e-14  -1.6224965315742016e-15  4.0487118004165099e-12  -1.4837860591403341e-14  -1.0116673506432375e-19  -1.0472975677319470e-14  -3.5448523112925060e-15  3.3106314175711552e-20  -1.6185697805359123e-15  -5.7702625957668031e-15  -4.5306015255541664e-18  3.6926456934079169e-24  -2.6088401676566532e-17  -2.1372796738592640e-19  4.2263493684211903e-22  -2.9287020511039372e-08  -3.0202847581708002e-17  1.7333921219918168e-11  -8.4061263865270536e-17  -6.9606584070106188e-23  -4.7663274337131251e-22  1.6562776213641856e-19  -2.4232697107376928e-24  -9.7748091316897602e-18  -2.1083945027532301e-20  -7.2590963107964723e-18  3.8380189598262704e-21  -2.3794880369955586e-16  -6.7806844559037889e-18  7.2674111375029577e-16  -1.4626974975264752e-07  -6.1310423656156591e-20  -1.7365974027789623e-22  -1.3261622417091906e-19  4.5558859277894941e-14  -2.1652067280864336e-10  -1.6670085719224463e-10  -7.2963387857173143e-22  -4.9690328923804690e-20  -1.2546658753960369e-14  -1.2694898044628499e-18  5.1856689037063338e-17  7.2628712665539045e-21  3.7986866781318329e-18  2.0352265146475716e-19  5.7337671813458632e-20  5.8519430420791838e-14  2.6128580470539000e-16  1.2247794430744572e-18  -6.3903838556582270e-10  3.0848242616773630e-10  -1.4510196725491563e-21  3.7620178768614570e-12  8.5157342936866942e-04  1.1716306216461330e-15  1.0098605920326516e-05  7.4747996020473187e-10  8.3257652905676361e-13  -5.8829986243965102e-12  -1.5386977906127170e-22  6.5175716199670318e-16  3.3323243828475107e-12  -4.3228100200870219e-20  5.7010029447105617e-25  5.5293324220785930e-18  1.5649779512445550e-11  3.3258198032128170e-21  8.9699489243552660e-18  2.9764095665523441e-18  7.5300950714068339e-22  -3.5562417633071761e-20  -2.1732633827033342e-19  1.0277772760877929e-13  4.7225359135482602e-13  9.5348973098911471e-16  -1.9883474934891556e-09  -6.7952973802163440e-13  -1.8247080402377943e-22  -1.2546580954771433e-20  -1.2243919296642799e-11  1.8689742952725937e-12  -1.7036922239924268e-16  3.9925587073637648e-18  -1.5635755390772570e-19  -1.2656520763926134e-15  1.1722920032860404e-11  4.3247942697524307e-27  8.2683454144749413e-08  -2.8347353073471502e-22  3.7626161218885680e-12  -1.0494399705318409e-16  -1.1389405153055548e-19  6.1320178401613350e-24  -3.0929970624501924e-18  -1.8652652914107573e-21  2.3008870036578353e-23  -2.4432973084467385e-20  1.7195852336968964e-26  -2.2135926330054940e-16  2.3252618030698090e-21  7.1500589105074805e-24  -5.4868316887265482e-22  -1.6893770502125056e-20  1.5258544084112328e-18  3.2794701568047623e-10  -7.5110306762496982e-19  -3.7987412059614209e-10  3.4395967094047976e-17  1.7957256032583096e-22  1.4581076951498867e-19  6.7925521741601792e-09  -3.3936480930816437e-24  -2.7216111413304698e-15  -2.5172122389013257e-21  -1.9741958879256985e-16  6.2106739854763033e-20  4.7092498636466516e-21  -5.7794887803986617e-15  3.6670790273886628e-19  2.5536250369064828e-21  -3.7528656706316668e-19  1.2419653187490319e-18  -3.4370674273504350e-14  -2.7132835857883458e-07  -3.1513263802336177e-25  -2.2875059209873671e-11  2.3722636453971226e-16  3.6250476604199820e-21  -4.3900993546692161e-11  5.9327786695648949e-05  -2.0194114963030439e-25  1.2598834628510144e-19  2.6676229987354896e-21  3.4596661351905623e-25  -9.4369272656707585e-13  1.0935873762042713e-14  -1.5258887736227624e-12  7.5171084377351201e-19  1.9597055307887193e-18  -8.1220207034313214e-21  -6.6483479441426750e-22  1.4413554742980349e-23  -7.0712531117997227e-22  5.3235585661257295e-21  3.0822588213745149e-23  -9.8191225122474276e-25  2.1298891459561351e-20  -7.1388694022884306e-23  1.0806882179504941e-20  3.7110522610498655e-22  -1.7333579010276335e-15  -1.7966714394968845e-17  1.9281800955320286e-17  2.2139685768416064e-14  7.7073869938970813e-16  1.6651490457961609e-16  -2.3671348534832148e-13  -3.8470789573049970e-17  -3.0002065459036621e-22  8.3418787720432242e-26  2.4094647076020320e-17  -1.4749278798430784e-17  -1.0924729121521127e-21  -1.4068268551119895e-21  8.2245868267753630e-20  -4.7340268413069506e-14  -6.1025651298413694e-19  -9.2525974936269003e-12  -4.3348048288050933e-16  1.1282417488402506e-16  4.6039126883385199e-19  6.9843765137145909e-12  4.6401160549301864e-13  1.3585197400258260e-15  3.1681360132094965e-14  -1.7258622641411893e-23  1.8097772137970984e-16  -8.9745482516696997e-17  -5.6383578284202712e-12  -2.8694876337984944e-16  -2.2760104076674937e-21  -1.9152657031047005e-22  -5.5351102378507525e-14  5.4193234310105769e-09  3.3732861780333185e-19  3.5278447229301897e-09  1.2614337775375319e-21  -4.4630233100402436e-19  -7.1583737299761018e-20  -5.5866376030669660e-08  -2.7968330175134252e-15  -8.2672290974402323e-16  2.3961378528607375e-13  -6.6169050055416590e-21  7.9686426981646071e-22  -2.4382070425070345e-18  -7.3178129501492951e-23  1.2039900519079141e-21  1.5661140410676835e-13  3.8055899014790664e-10  -1.0738398857387531e-20  1.0209454637307179e-08  -3.2202681094519307e-18  -6.7931936065018764e-15  6.2025499704131859e-11  1.0802961979390918e-05  -3.2484674290148849e-15  -3.1026902652533625e-19  -5.3456246119385628e-15  3.4725290225743816e-14  6.4232948907962892e-14  1.8192037194849597e-13  -1.1339681146045911e-10  -5.7468357114640301e-17  -1.5023418783451347e-16  -3.2571271232954903e-16  -1.1118247333410984e-12  -7.0123500026920131e-11  2.6784238583443628e-10  1.7141865657420643e-21  1.7393706708162620e-13  3.9717322873414010e-23  -2.3723547980962853e-19  -2.1011531561180428e-14  5.5270951719410799e-16  8.6019048452496610e-16  1.7993645623284492e-22  -7.2585672131409687e-17  1.4210438837426331e-17  5.7424485897301574e-09  -1.3117645838982772e-18  9.4577343460737330e-24  6.3482782478152558e-23  -2.4613897640955968e-11  1.2440451719095231e-19  1.3504145453181417e-18  1.9776288862366405e-22  5.9834896082310429e-17  -1.9209246694147436e-23  -1.0958473439033665e-23  -1.6082273316978218e-25  1.6686831429302841e-06  -4.0384948371279769e-21  6.6006830268943888e-11  4.0369129985203546e-21  -2.3980388815230871e-24  5.8180461519019055e-20  -6.6875349074273337e-18  -3.8556733315664948e-18  -1.1467370941067317e-19  -8.7802477800187523e-16  -9.7305578369722583e-18  1.3285930356427402e-19  5.2541536918472213e-20  -1.8534106253281023e-17  -6.7505775843959526e-12  -4.1649678046057038e-10  -1.0781814486431120e-10  1.4550238290833114e-20  -2.5325031578645510e-15  -3.3357566057615841e-19  -2.0336709709749195e-25  -2.7593448806771967e-24  -9.3565776358221442e-18  -9.9444300213477837e-17  1.3528981434537224e-16  4.3145145698714290e-18  -3.5248744095699674e-20  -1.0546905874403533e-19  7.3820768090317721e-20  -6.7737620286085322e-09  -5.1910755970963087e-16  -4.9102704053332666e-19  8.3192794215735208e-13  -2.3613383772704238e-09  9.7464028011173401e-09  9.7387172631429521e-07  1.4922389358497972e-06  -3.6895803993327087e-21  -4.7292414294020963e-12  -1.3464051188376798e-16  -1.2859035475725897e-17  4.2430153875804126e-17  2.7895081642865060e-16  2.2974436027193981e-26  -4.2730553383310729e-24  6.7958087685548296e-13  4.0430923424440551e-19  -1.0407400137560220e-19  1.0714812302916644e-11  5.3559798187684767e-20  2.3116560973196080e-13  8.4003156743558331e-21  -3.8118738643490330e-14  7.3014412569406352e-13  3.8973110212285431e-22  -2.7953729572579560e-23  1.1855732763446055e-08  -2.3313293073153247e-12  -5.7375979238714410e-18  -9.6048020648183715e-18  1.7924212799249956e-17  -3.6716415237156393e-25  3.2045411939563830e-22  2.5713524279869773e-21  -5.3764035134242565e-10  4.8345279160590789e-14  2.8421938838327365e-20  -2.5629971705764741e-20  -3.6957851985557464e-18  1.6626179419227766e-17  2.2867320552775793e-19  1.4150266852110054e-19  3.2639581591171084e-13  1.5445860271137786e-12  9.3995867612051424e-18  -4.7148575086892550e-22  -4.4274339617421146e-18  2.9979052744897316e-16  2.4683131877266125e-21  -1.0944563525180491e-17  -2.2735358162203494e-11  4.4839617667763714e-14  -1.5423753320332328e-17  4.3179186392288639e-19  1.5879948063929737e-20  -2.4952449601624286e-24  6.6266281088372377e-20  -8.7963628803740207e-12  1.7719854382092293e-16  1.4162033526358878e-18  -4.6627143907479614e-16  -1.9468942059398386e-17  2.6115890481762624e-18  6.1953622581601793e-15  -1.6842303534137157e-16  -1.4194119577347391e-21  9.6639197875407721e-19  6.2112593861546311e-12  6.2586380436090719e-13  5.1051198965562051e-13  6.2513323453857453e-12  1.0049649994889072e-10  2.1299464744354770e-15  1.7867018517122966e-13  -2.7225303551365972e-19  -7.6065351354337356e-21  1.0411555337981494e-10  1.0682610320166744e-23  -8.4711466794337837e-10  -9.3849577696398850e-04  -4.7935053544837094e-23  -5.5606818623977860e-20  3.0190754092399361e-12  3.0010213734812577e-17  -3.7137917537544872e-11  -9.7215698230747576e-20  4.6614833534791281e-22  4.4092411590965535e-22  -9.5314322236810530e-22  7.1261531861212412e-21  8.5462089839756550e-14  9.9884261041561240e-14  4.6105513787861896e-17  -2.8100151192242534e-16  -1.8196203738937293e-21  1.6613142078880104e-11  -1.1752817919251577e-11  4.5673234902067259e-11  -1.6124153610494865e-15  3.0243404381556557e-19  7.5458247540554842e-15  6.3331351198285454e-12  5.4070308404318261e-13  1.2861131953370960e-10  3.6422410985446664e-15  -1.4512199446719200e-16  -1.3149053201075827e-05  3.8067370270657982e-23  9.5733395794408887e-17  -3.6742127741689844e-15  -2.9859499026820312e-14  3.3392254322784774e-19  3.9319444465272928e-18  -9.8319779777323317e-22  6.4899226659012797e-05  5.1991854081545284e-11  3.3374973619153093e-19  4.2518230632800446e-14  -1.1117059174344404e-16  5.7027185181674102e-21  -1.2861301524032983e-14  6.0993337975846364e-18  7.2697110696697701e-12  1.0626894633861308e-19  7.7670390671069763e-20  -1.7631312814108697e-18  -1.0425471060664352e-17  -3.5813679500044657e-23  6.1190828234627800e-18  -2.7475741427554251e-21  -1.8196503261069524e-14  1.6908141221326893e-16  -3.3452062273852927e-12  1.0155521991105991e-19  1.1798665868011849e-14  2.6628496715124844e-16  -4.1162558858611887e-23  1.6542158599960102e-05  2.5691941188971868e-21  3.2944642353816670e-16  1.1622394731031943e-17  2.0209063242359537e-13  8.9801618084533295e-13  -2.8027413353261502e-21  1.9803596763177189e-14  -1.8946878420125359e-08  -1.2113466769092622e-18  2.9029215022602677e-17  1.2827868814452258e-17  -2.4932367091981073e-18  -2.3411718301528098e-20  -4.1939108937356015e-17  5.0313613293532517e-10  3.3481838396483954e-04  7.0180738383723819e-16  1.8586034372703736e-16  -1.5381979097264539e-24  1.8055119893822127e-15  1.8656719085341901e-14  1.1255309985025225e-11  4.1107460734995144e-20  4.1215413163525242e-20  2.2436118462506573e-21  -7.3166111496725484e-14  -4.3465280858754717e-23  -1.3998391964347738e-22  1.3454121557227920e-22  -1.0807527310199504e-21  -5.3877373771617381e-13  -2.7016671995338475e-12  -2.5931844535504524e-13  9.8860980885611898e-21  2.5261274535120799e-13  -7.3906142039595630e-19  -6.7077372592393820e-15  -2.6237037871984088e-20  3.2370146150463866e-10  -4.4451983131773865e-12  8.0382140944321042e-14  -5.5815759164675939e-17  -5.9497948935012805e-16  5.0320908787740399e-16  3.4354315152428530e-07  -7.2617680803630091e-11  -1.4860442083911939e-10  9.5073477066637748e-14  -2.3146080224132491e-20  -7.1539411605716027e-10  -2.5384226397241260e-22  4.8244363673993432e-21  1.0404139420797319e-20  -6.3526276027516143e-21  4.7566357745154300e-21  -2.0159332639839262e-21  -3.2054608156423035e-25  1.9008282005799484e-12  -7.6733080484102259e-20  2.6525732019400127e-26  -1.1769160532624811e-21  3.0186187580596556e-19  -2.9430407909359039e-18  3.3167337404171716e-14  -2.2340578514775144e-26  7.2524861364144464e-26  -1.6203213611719078e-19  1.0891132235397366e-26  -6.4362548451556981e-14  -7.3814551462820311e-13  -8.3796874098937570e-12  -1.2006284756633622e-09  3.1714680212204763e-19  -2.1084551603707434e-11  -1.9510070134443094e-23  3.2355212428219563e-13  -1.1480952986052296e-17  -1.4999842617155709e-16  -2.7647922950011876e-16  -6.0049038731156736e-17  5.3028537105023066e-12  8.2358849601236397e-24  5.9773461886821149e-24  -7.4916124987517920e-22  -4.3972036972197149e-22  4.4682661805907533e-21  -1.9632000618739419e-18  7.2340521545453719e-13  6.4615046798547178e-16  5.8704636276174083e-23  3.7946869797420009e-14  3.9325497688509498e-16  1.2458895781105116e-15  6.5825621892343268e-10  1.9045372475205247e-15  -1.6079227513440453e-21  2.1426539097021661e-20  -2.2069537143841053e-22  5.4736271946238822e-19  4.7673476977062799e-19  3.2588938625865057e-20  1.8925128439427490e-21  7.6589015478959298e-19  -1.7491102032890415e-17  -3.4384935195933646e-18  -2.8206458987762654e-21  1.2304745683316492e-05  2.2271164904755300e-07  -1.8315101913205066e-15  -5.6707674085568589e-23  3.2807442324354249e-21  -3.1111125334934710e-20  3.7555591978387816e-21  -2.4705063241282336e-25  1.5191141292946022e-20  -2.0493174543550421e-24  -1.0342627011965297e-08  -2.5058723511801527e-08  -4.2541373869552880e-19  -5.4714693904307940e-18  -1.5888372166317783e-17  1.3340113814582977e-22  1.5048040687581481e-22  -6.0133643797489124e-19  1.2897071042418489e-12  3.0277953442102528e-13  9.2483618138003823e-11  1.1087618079902147e-15  -3.3538091392027883e-11  1.6638937055663424e-09  -9.1153259503100072e-09  -7.5721519679359225e-17  -3.0819007156110484e-18  -8.2437709012744305e-20  -2.7503439803972818e-19  3.6543642280346835e-20  2.0548814119941872e-21  1.4753177430851285e-17  -1.4957174896128994e-23  -1.3686244848189573e-23  -2.2735266420577011e-17  9.4661262777107107e-21  6.6722214390978513e-20  7.1582471029916517e-26  -5.2713514996980268e-23  -5.7128300634204467e-17  -3.5188090091095553e-22  -1.7554941742286202e-17  -4.6319102777227248e-19  3.0646971588009565e-18  9.6656905947446426e-20  1.8418437461542934e-12  -3.0515155725284754e-17  -3.7198599800177055e-16  -4.5644407729641867e-17  -1.0045194282559229e-22  -2.7290928809784677e-23  -3.3435637814064377e-22  -2.9598099282545094e-25  -5.4506558150982605e-23  7.9417068330157511e-25  4.0401706479947021e-17  3.8146460339525178e-15  6.5750298907492169e-20  -5.4746114209309287e-19  3.1362684871876690e-13  2.8117248498067491e-13  2.0162551261295657e-17  5.7532485705139890e-17  1.8858139945151016e-15  8.9177489130343113e-16  -5.3725356412096382e-17  -2.5965127999044569e-20  -1.2180832230328965e-21  -2.2480355833223458e-19  -2.1546811276780745e-18  3.6956721768641098e-19  -1.9956244793875807e-20  -2.4674906021150288e-09  -5.0562112148426411e-15  -2.7783667025742201e-21  3.1779753699432990e-12  4.4691126744791261e-18  3.9815308568720243e-18  6.7998778124967414e-20  2.1100444638533402e-14  -7.1391999929573780e-09  1.6681812442817202e-26  -4.1896162338939605e-26  2.0777478390083280e-12  1.1343198204722773e-24  -2.0377907976135941e-20  3.1745188960635430e-09  2.8046031922373348e-06  -1.5771216868614654e-08  -6.1991747720604484e-22  -1.1761556586749377e-19  -9.7486284131369385e-08  -1.5863281548523244e-13  -4.0572648931095919e-22  -1.1094129464905949e-07  8.6528432082398821e-22  -3.4098726404466023e-25  4.0505080553425845e-19  6.4848036463980355e-24  -2.2261132829230448e-19  5.8479620585831799e-16  5.3101737963661778e-22  -2.1410170825780794e-16  -1.9914846903468754e-21  7.8481221582616447e-10  -2.8750042246203588e-16  7.6538335940345407e-07  -4.0266753958789804e-14  -2.1154623449139589e-22  3.5733494588051165e-09  -4.8535673731264080e-18  -8.0520795017787364e-16  1.7368836647637457e-22  9.1728658612512313e-17  -1.2685748914704572e-20  -7.9355102324266074e-22  -3.5649695714114576e-15  -2.3627210709810949e-16  4.0833949753386592e-21  -8.2854793543995006e-14  -1.4766772865687751e-12  2.2265215007545965e-12  7.7382388991574657e-10  2.4982920467978158e-20  -3.3805164527329485e-19  -9.9362111467192908e-16  1.5377247162156841e-16  2.1367498490450600e-10  -3.9780406659558216e-20  1.9934101246373842e-20  -1.6198997545969258e-20  3.6455353430029038e-20  -7.3760622887124363e-20  -1.1300398013221144e-20  2.7676172597532907e-21  1.6779354407587150e-04  7.6200042581490677e-09  7.2582556868421872e-11  1.3667109358405497e-10  -1.4947426420818383e-11  4.5459534850792301e-10  2.8381874452760939e-11  2.6013200569941535e-16  1.7058886525704443e-17  4.4594340272216541e-11  8.1323013191436600e-23  5.6136492616437819e-17  3.9719829681505746e-20  1.6775151323879521e-14  1.2488190547868294e-14  -3.4421457283215722e-14  4.7525434048844224e-11  9.5879843408141272e-22  7.3809128371455413e-22  1.2097031521116378e-14  -8.3512932693813562e-17  -3.6887400699246699e-18  -1.2578599335762399e-21  2.6218971987748940e-20  9.1246230944696388e-14  3.7934390430922407e-13  9.5028081827797289e-22  -1.7975574252654126e-22  -3.7500628612675332e-19  1.8561581606587329e-15  -4.5471761276433679e-16  -2.0235069170330651e-15  -8.6596236722463505e-17  1.0899497697651289e-13  -6.2877031499773802e-17  1.3675567582794519e-11  8.8571716570089322e-26  3.2435182905507388e-22  2.2035926658608245e-21  9.4966804156944759e-17  2.4471600432392301e-19  -1.3746431213848737e-22  4.2209434794295829e-25  -1.7114128320980526e-24  9.1772415940672848e-24  8.7692812660167318e-16  -1.3440180859556723e-16  3.3034098964659165e-17  -1.3585445707624394e-13  4.2925333679770310e-14  4.8296823826406831e-13  4.3594881548873925e-20  2.9109468522438383e-13  2.3138815274466737e-19  1.5562607713542729e-11  1.5743414357912669e-22  1.3632245406826029e-19  -7.3026744821344565e-20  2.5489220861420917e-18  -6.0516135054865780e-19  3.9787900705157285e-19  -2.6018063914029828e-18  -6.2044421397332465e-18  -6.0467526244553003e-17  6.1271550320646132e-18  -5.9385622101566881e-16  1.3427694229940319e-23  -7.7686767870067902e-27  9.8378330826011264e-21  6.2359395621627666e-22  4.3776358084497973e-24  -9.7813771050215933e-22  1.7476313741023519e-23  6.7248246589646202e-22  -6.2257841882438439e-21  -2.2931782930513628e-21  2.1886800805664481e-20  -3.5300940878082596e-22  5.9126141949292952e-21  4.4403442170428726e-26  -5.1223026389998812e-22  -1.6898629585279889e-24  -1.6338616810972036e-24  3.8459480443689713e-23  -7.0846289029351590e-07  -9.9047089197904895e-13  -1.5096176384373060e-13  -1.8791181841640563e-15  1.3012961917825286e-22  -1.0055501693475604e-21  4.5649008792941506e-20  2.4344571942641886e-25  1.2296388707013598e-10  3.9219710521452486e-17  -6.4924929599838075e-22  -8.2584491269998074e-12  3.5988942757066901e-23 