<?xml version="1.0"?>
<VTKFile type="UnstructuredGrid"  version="0.1"  >
<UnstructuredGrid>
<Piece  NumberOfPoints="3002" NumberOfCells="5870">
<Points>
<DataArray  type="Float64"  NumberOfComponents="3"  format="ascii">323455.6100285493 6048753.88242996 0  323455.6100285493 5954782.59950515 0  405920.1480513444 5954782.59950515 0  405920.1480513444 6048753.88242996 0  405920.1480513444 6001768.240967555 0  323455.6100285493 6001768.240967555 0  364687.8790399469 5954782.59950515 0  364687.8790399469 6048753.88242996 0  364687.8790399469 5996367.117560402 0  323455.6100285493 6025261.061698757 0  382226.6271443229 6022560.499995181 0  405920.1480513444 5978275.420236353 0  323455.6100285493 5978275.420236353 0  353897.8957397301 6022560.499995181 0  344071.7445342481 5954782.59950515 0  385304.0135456456 5954782.59950515 0  405920.1480513444 6025261.061698757 0  354379.8117870975 5975574.858532775 0  381582.8168806895 5978840.396198289 0  384950.2598624413 6001768.240967555 0  344643.0480768835 6003429.02033719 0  344071.7445342481 6048753.88242996 0  385304.0135456456 6048753.88242996 0  339717.0321562298 5986078.187627405 0  337515.036058786 5969821.016310448 0  368062.2614420265 6013076.224998265 0  368062.2614420265 6032044.774992097 0  393987.6142659165 5988729.699941677 0  405920.1480513444 6013514.651333156 0  392856.2821527076 6034589.119828064 0  393514.9611654527 5968369.338068204 0  339399.8087404341 6032061.482581838 0  323455.6100285493 6013514.651333156 0  374995.9462927963 5965504.865595459 0  354379.8117870975 6037976.901948514 0  338123.9088969378 6017031.529131207 0  367397.3120126425 5982072.559192053 0  351882.5752379905 5991998.990225234 0  376945.425450199 5991232.708824487 0  392265.0061656896 6013300.936254065 0  357029.7426706699 6006608.947964352 0  380093.6207558212 6036880.127749795 0  323455.6100285493 5966529.009870751 0  405920.1480513444 6037007.472064359 0  405920.1480513444 5966529.009870751 0  323455.6100285493 6037007.472064359 0  333763.6772813987 6048753.88242996 0  405920.1480513444 5990021.830601954 0  323455.6100285493 5990021.830601954 0  362879.3643765316 5966837.319094267 0  348367.6438548031 5965604.161682394 0  334493.1989038612 5996935.948935225 0  395068.5043068817 6023875.372615605 0  348216.0324377587 6013504.844950221 0  379305.9090074943 6011603.390019651 0  372523.5158233726 6003480.000732267 0  395435.2039568929 5999384.346358113 0  395612.080798495 5954782.59950515 0  333763.6772813987 5954782.59950515 0  395612.080798495 6048753.88242996 0  374995.9462927963 6048753.88242996 0  374995.9462927963 5954782.59950515 0  354379.8117870975 6048753.88242996 0  354379.8117870975 5954782.59950515 0  335074.5981535012 6007206.680367459 0  391925.2695590468 5978591.908877409 0  371969.1707190623 6022560.499995181 0  383872.162544519 5969415.106147043 0  358038.7139835292 5984533.09712744 0  369699.869182786 5973102.2359358 0  369841.9126663716 6041099.453006387 0  343176.7440329155 5994428.220622956 0  362933.5332293962 6024385.235173292 0  330640.1760208776 5984148.625419154 0  348684.7494355051 5983110.856817525 0  399094.9690929834 6007537.420809742 0  345447.6324516311 5974162.84917082 0  332859.7749513451 6039150.972778062 0  344517.044630671 6024057.945416138 0  332973.1214415312 6025037.914505113 0  341428.0126373461 6040493.820728126 0  385874.264691618 5992757.40885039 0  350337.3662538711 6030387.535304286 0  359887.2373602368 6016186.250094838 0  377097.8989316926 6029115.217702097 0  338917.7109078235 5961484.016839475 0  329495.5261590715 5972402.215053552 0  336644.7280634616 5978216.610794215 0  330688.6715098422 5962480.256438018 0  359899.8039476132 6031963.415584587 0  399746.255941904 6030426.523907755 0  385511.6875144855 6030368.508996127 0  387377.735783329 6040763.821024337 0  398832.192399829 5974431.100387635 0  387992.9498994246 5962432.032572681 0  405920.1480513444 5984148.625419153 0  364925.7641745284 6005782.953640081 0  361769.877068089 6041226.651684469 0  398452.9199001931 6040850.732439541 0  398946.6205243983 5962252.502309519 0  362305.5577564609 5975984.89789681 0  356822.8065216601 5998470.186307689 0  386900.7115926162 5984820.732438302 0  329528.0119279922 6032067.230024892 0  331139.6939744562 6013813.572928222 0  398457.5876798834 5982541.698799337 0  405920.1480513444 6019387.856515957 0  398685.5166750694 6017257.578706384 0  348587.9424884976 6042755.309150081 0  369841.9126663716 5960143.732550304 0  380149.979919221 5960143.732550304 0  359533.8454135222 5960172.384722514 0  377147.8814772839 5972649.581024994 0  341756.3455763521 6010124.092444684 0  355615.8176864882 5966311.193813809 0  369144.4338274571 5989807.770003954 0  375185.9047422862 5983510.422041401 0  323455.6100285493 6007641.446150355 0  391856.7960121195 6005888.565703365 0  371978.0245217044 5996361.134308098 0  405920.1480513444 5995895.035784755 0  378877.1880032702 5998073.745937059 0  359056.6617417652 5991643.489540118 0  399278.8743430426 5993436.466134224 0  386116.8775939071 6009922.097099247 0  323455.6100285493 6019387.856515957 0  388994.7833819839 6019826.789191471 0  348897.6207366391 5998116.079250046 0  345456.3301153719 6035064.814295612 0  323455.6100285493 6042880.677247159 0  334124.3013408988 5990072.953472659 0  377097.8989316926 6018059.782440464 0  323455.6100285493 5995895.035784755 0  342871.8474798963 5980154.238874755 0  373596.9793292385 6035659.183886081 0  380149.979919221 6048753.88242996 0  376327.9292813152 6042294.581731233 0  329163.3548105369 6004704.843558955 0  350303.9432136903 6007093.032074522 0  383982.6552804571 6015912.664375832 0  345515.490569988 5988567.439252969 0  379019.812877927 6004678.052169549 0  365541.9137639466 6018750.691894444 0  349225.7781606728 5954782.59950515 0  352493.3399767278 5960815.406895458 0  363683.8130458911 5986976.225872464 0  386666.791301207 5975084.583584332 0  368937.6553346639 5966171.092344863 0  400003.9882214358 5968352.273777306 0  328776.0063842635 5992958.433193355 0  339958.4428758043 5999572.344589042 0  354577.7732363954 6012555.454074449 0  328609.6436549741 6048753.88242996 0  382053.0280278458 5988228.496807038 0  330708.6817934912 5978212.973348036 0  372084.7734679543 5978495.086505585 0  358568.2738174705 5971419.415228934 0  328931.2672829705 5998832.905089681 0  323455.6100285493 6031134.266881558 0  405920.1480513444 5972402.215053552 0  405920.1480513444 6031134.266881558 0  323455.6100285493 5972402.215053552 0  405920.1480513444 5960655.804687951 0  323455.6100285493 5960655.804687951 0  405920.1480513444 6007641.446150355 0  323455.6100285493 5984148.625419153 0  405920.1480513444 6042880.677247159 0  346648.7613474604 5960023.05127712 0  342415.3891593561 5966358.988213831 0  350507.6510228226 5971111.740321856 0  391773.9667214506 5994456.117700323 0  338875.8905424621 6026088.827345025 0  361429.1735454847 6010511.262533597 0  389395.7028803263 6025805.543023561 0  392895.6464692951 6043315.288173481 0  332846.8296575367 6019296.633131165 0  373337.4404588729 6009693.515402478 0  336544.3064612215 6043648.151399015 0  348610.2411382072 6019567.839754772 0  381943.4597763228 6042183.394750732 0  355630.0631288611 6028071.82801846 0  363941.5238882306 6035967.852698964 0  328179.67203552 6022271.326978176 0  401066.2857736665 5998807.415073814 0  344387.1099621175 6029612.545574771 0  393435.2235156003 5960233.556458537 0  400735.9970493424 6022675.638064924 0  393708.5772019727 6029179.837160029 0  400609.0696943338 5987857.851798974 0  361753.6614662939 6001152.171757337 0  400766.1144249197 6048753.88242996 0  353363.0524357285 6002630.165620538 0  343248.328463803 6018790.640008039 0  356419.8105951758 6043365.392189237 0  390234.385899412 6000759.497967276 0  368336.1168551637 6000220.532318851 0  328609.6436549741 5954782.59950515 0  387520.8298169724 6035372.992507171 0  400588.0280660195 6035823.299583429 0  329021.6598427091 6043194.252697862 0  393371.710206733 5983576.325812268 0  393638.9721728675 5973623.513063556 0  371727.9212466564 6017113.044457142 0  364687.2762977295 5959941.212693035 0  374995.9462927962 5960346.83186599 0  369841.9126663716 5954782.59950515 0  400766.1144249197 5954782.59950515 0  338917.7109078234 5954782.59950515 0  369841.9126663716 6048753.88242996 0  359533.8454135222 5954782.59950515 0  390458.0471720704 6048753.88242996 0  338917.7109078234 6048753.88242996 0  390458.0471720704 5954782.59950515 0  359533.8454135222 6048753.88242996 0  380149.979919221 5954782.59950515 0  349225.7781606728 6048753.88242996 0  339867.4956514095 6005339.817053361 0  333737.9460226952 6002130.523287664 0  336955.8140048417 6012008.440073739 0  377097.8989316926 6023232.32559834 0  371748.9790486701 6028016.629988787 0  338146.5171983215 5993298.164761053 0  355016.8390227688 6017610.913088997 0  393953.1528190996 6018968.416019509 0  335185.8133477239 5965142.63403323 0  328616.6041642396 5967263.80307608 0  380314.9487662361 5965460.362415641 0  354622.8993466098 6032976.142863722 0  328521.4725131759 6027215.026914048 0  334465.0783479523 6034070.534389696 0  328123.6212682287 6009699.206425843 0  381889.5169855529 5973936.741901617 0  359122.3484437474 6036790.002992895 0  386341.6533148278 5979963.279841923 0  400798.2159679119 6012477.871311778 0  388538.3765260249 5967461.292146791 0  340833.8784183678 5975728.708105717 0  355307.6239213505 5988552.151815021 0  362181.4274823388 5981261.937800813 0  353784.0322742948 5981044.538811012 0  358045.1698423899 5978741.391518688 0  328423.7350325213 6036912.015930048 0  366897.6876966125 6027277.723668203 0  347355.1745641421 5978532.307510624 0  376820.5060332146 5979033.270735624 0  349378.1778589479 6024378.632814493 0  327189.2282939323 6016451.253924556 0  338433.8773236172 6036753.902881841 0  350141.9760340559 5987605.90026687 0  363794.7083927878 5991713.491814731 0  350325.1285660182 6035273.515460094 0  382355.9358007369 5983507.499638396 0  327107.0747437811 59811
[...]
<PointData  Scalars="f_78871-1"> 
<DataArray  type="Float64"  Name="f_78871-1"  format="ascii">7.8736920028785029e-23  -1.0135653018858826e-21  -2.1521771328969532e-17  2.6460806848330969e-21  1.6471842872156133e-10  1.6156729605618587e-17  9.8923483992641026e-15  3.8379685455031440e-18  -5.6472939324868372e-03  -6.3069285603404743e-18  -3.1802923339024637e-11  -1.0130050524634498e-12  -6.0925182101382006e-19  1.3038663844117149e-08  8.5386536672655114e-19  3.9563057949457632e-15  5.5076168319546145e-14  5.6855916124605718e-11  9.5046551410548221e-06  -1.1146362534847337e-05  -6.2187715427991522e-09  -3.1474759423416408e-18  4.0625739707229574e-19  -7.2950032834298113e-13  -4.5554613570505704e-16  5.3934920779949665e-05  5.4374346390824257e-11  1.0440242798796125e-06  6.3969518620854940e-12  3.8714029015274523e-16  8.6976496558372284e-11  -3.1430578535091111e-18  1.3805361567925545e-16  4.6396018220734017e-11  1.7762566867509698e-12  8.5246540176326972e-12  -2.4141517078425971e-07  6.4261822206529325e-07  3.9543621715199562e+00  2.6252454058792155e-08  3.2248116198344782e-04  2.9090607562017773e-13  -7.7450069535479661e-20  -9.1143685734694378e-19  1.6780678547568326e-13  -1.7041147332279898e-19  -1.9227062312772958e-20  6.5946342409393319e-11  -2.1540075245419267e-16  -7.3474863163770377e-12  9.1862126198698065e-15  1.1645394423191536e-11  1.1682168513813716e-14  1.7153659190716869e-09  -4.0820408666995236e-07  -5.9794954855733355e-03  4.8874310365091205e-07  -2.1706982631410277e-17  8.9950146964482347e-20  8.8651156473155728e-20  -9.4501397399457772e-18  -6.0857916332974379e-16  1.4286556890161793e-17  3.4480826263598305e-17  4.9386846363352415e-11  5.5160624577257815e-10  1.2836073056705686e-08  6.0877213159657091e-10  -5.0850068885861689e-08  3.6753376157884657e-08  2.0364072863082081e-13  5.5374123254322206e-09  1.8165689401904493e-09  4.7685921750869035e-16  5.5622686530129357e-11  2.4900699603923608e-09  1.6264709344441722e-12  3.1992469958050127e-19  1.2413997698332620e-11  5.4477688326154079e-14  2.0549160178796587e-17  2.6058347269001157e-02  6.2105395473998509e-11  5.5868608926026102e-07  5.3561397925284290e-11  3.2355560241286465e-18  -3.2263970222698385e-17  5.1363501494621627e-14  -1.8170774332355646e-19  2.0059274744102341e-11  2.1156391957806526e-16  8.3444178672364864e-13  -3.5797849778183064e-17  1.3211985699250383e-11  4.9294639673629744e-12  7.8276630194780217e-14  4.7813359470226086e-01  1.1273698769016069e-13  -6.6206575529676869e-19  7.3071064760782918e-14  5.3373027672475361e-09  -3.7675221211686217e-05  -3.0139868556722478e-06  9.0953184433493722e-18  3.6446811294869686e-14  6.8957190112611475e-09  4.1218120492206251e-13  -1.1862336111704760e-11  -4.1318179955717363e-16  2.3174554379030340e-12  2.6992613610836241e-13  1.0479008062264968e-13  4.6474557546236154e-08  2.6144414625786413e-10  6.9678211033326117e-13  4.6332870772353716e-03  4.9104525898178693e-04  -6.5792224896238301e-17  4.1652306822277865e-07  8.3624193276150436e+00  -4.0317364900034784e-11  5.5877473834945790e-01  2.8434492821269736e-04  3.7629781892550545e-08  1.2411468720159139e-06  8.3069060447545831e-18  1.7176991438714403e-10  1.4118695270572729e-06  4.8616375883484028e-14  -5.7768635865083259e-21  3.4602950948758573e-12  1.1120022901292119e-06  1.6034552732953105e-16  5.0572570970755447e-12  3.0231375601094273e-13  7.8803896377099427e-18  -6.2882604166323051e-16  6.7445248717873940e-14  5.6856002567290848e-07  5.2049709327508369e-08  -1.0476219251570537e-10  -4.6575000373255904e-05  3.8227186298139195e-08  -5.4414544015953380e-18  1.2828201729241899e-16  1.0825781312415094e-04  2.1172303806812361e-07  -1.0301546878915155e-11  4.2856748555663212e-13  2.2562671074250499e-15  -2.5843713190431424e-10  2.1828036964993022e-06  -5.2292985707086771e-22  1.0455733654942722e-02  9.6922445759527380e-18  4.8809521440271571e-07  5.8687500515211771e-10  1.3126702767722245e-14  1.2058246548147463e-19  1.8469264940490257e-12  2.8841456779537224e-17  7.1185489625032805e-19  -7.9860254282011575e-17  -1.8196259555121443e-21  3.4147782347192776e-11  -4.8189624699025005e-17  -1.3384598518694987e-19  7.5041638095366794e-17  -1.2770717497375918e-16  1.0854205764742955e-12  1.1357121337290211e-05  6.4464986269246377e-14  2.5586900723060298e-04  4.3551559444358011e-12  -1.5871650735881341e-18  1.3057511132786744e-13  4.3542285588517478e-04  -2.1608544766885898e-19  4.4066781106187187e-09  2.5286025873378709e-17  4.8078851246162791e-10  4.4332537313569282e-13  8.8212015513524477e-17  1.6140858056640657e-09  1.3002936176110355e-12  4.4284774472201051e-13  6.4479362931146911e-13  1.3323782661866102e-14  4.4152928983664912e-09  1.6205946115409961e-01  -3.8268450646015927e-21  8.2613497484247431e-05  9.4031047659572350e-12  5.7271613455193494e-17  5.2576609739273912e-06  9.3938526690130253e+00  -1.3656652314701913e-20  6.0192073946929658e-16  -3.8317538391079331e-17  2.7635637395432429e-21  4.5431849376433293e-07  1.5866636308540382e-09  1.6132566600829468e-07  8.3417043094515437e-13  1.2787363103756208e-12  -2.9117253787155728e-16  1.0900109339904896e-16  5.8797704008335787e-19  3.3337733489232886e-17  -1.6008967430768770e-16  -3.0046685708140977e-19  -2.4725323255053298e-20  4.3718352629993473e-17  -1.7756524683891659e-17  4.2891740735100059e-16  -2.3953231434978527e-17  -1.4754442734199562e-10  1.1782228839785841e-12  5.7782333629900902e-11  5.6690722988734676e-11  4.2496954997160885e-11  3.1847352883655207e-11  2.8470511241482800e-07  8.1564880901937306e-11  -2.3562482461714788e-17  -1.9285554385895113e-18  -6.4465285991306869e-12  3.3219927575962370e-11  -5.2472951032840113e-18  2.5747938306617035e-18  1.4151196949190580e-13  2.0717866185716455e-08  1.3439075239434457e-12  -5.9522481924713477e-09  2.2072458784679149e-10  1.7446295871648392e-10  3.3546585865407874e-13  -1.7032077374917579e-07  3.2871053827469614e-08  -3.4539976327804065e-10  1.1133177775775867e-08  2.8556613583156243e-19  9.3018925940226025e-10  1.4802599455046693e-11  1.8956782779488768e-06  5.8517703008321276e-10  -2.7044135082132986e-17  1.7139026375726956e-17  1.7104447582059110e-08  1.7947741902354167e-03  3.4929029291109737e-14  8.1936341076014067e-04  1.2984799470862318e-17  -3.8977648790807564e-14  1.0801543033117616e-15  -2.0116671237396825e-03  2.0674164603204881e-09  -2.2473353972963732e-10  2.6650002402772603e-07  4.2392997317663220e-16  6.1146078525574450e-16  3.6945103512574179e-12  -6.8070249657730011e-17  -4.2446704198477183e-16  1.0352929156429529e-08  2.8508459737334565e-05  1.1038786130931377e-16  -6.8911475960426797e-05  1.8943616548019771e-12  -8.8869775708004283e-09  8.0062952128373926e-05  1.2488909324873905e+00  1.5407288225339419e-09  1.3979506515255956e-13  2.7314844969473975e-08  -1.4864033530292014e-10  3.7692042904937706e-08  1.9326389314357163e-08  4.1715302872076373e-05  -3.6184576103325858e-12  -3.3809457745360069e-11  1.0246429537651392e-10  -2.5227495007622209e-07  6.4890355113506553e-06  1.2889899532550443e-03  -5.5582352101464862e-18  9.1898930023679969e-09  -1.8506622800435631e-18  9.4646800751974149e-14  1.4746903204061581e-08  -7.3135799011130074e-12  8.5315566942647745e-10  -1.1209875554214167e-18  3.8640574517514480e-14  3.0788243437661420e-12  6.9479997940844864e-03  4.8869997814659205e-15  4.3526889431847035e-19  1.4266430314249725e-17  1.0709647315864954e-05  2.6241535894571970e-15  4.8554590743846936e-14  7.0198349130408703e-18  8.6742603931531553e-11  1.0100316029296399e-20  -1.5128821219270783e-19  -1.8783624960163908e-19  -5.7318544329115050e-03  1.7478595642034191e-16  1.5548769064764927e-02  2.8719406224198016e-16  -1.3188839329540284e-19  -1.0094793912098707e-16  5.1310882407256598e-12  3.9589101300626541e-12  4.8486469862415800e-14  3.6969963231921786e-09  4.7267749013715936e-12  4.0123101412190773e-14  4.5351590986189230e-14  1.2148734621131117e-11  -3.4421128358719159e-07  2.5743718408274764e-04  1.4293954365509312e-03  7.7888349491110892e-17  6.6519977544493763e-10  3.9269494504447893e-13  -1.2013723009944820e-20  -6.7149526794156530e-20  3.6374815796943194e-11  3.8566942917803006e-11  1.2461785307380262e-11  6.5525067182231238e-12  4.0480089670906895e-16  -1.1610502258308740e-15  -7.6694455341810360e-16  -6.1049101219053450e-04  1.3399937561317220e-09  3.9587616095465242e-13  -9.3690023390849971e-09  1.3942014905865004e-02  -9.9735950655447086e-04  1.2554134388504062e-01  -7.8869922865620334e-03  5.0758188656872289e-16  -5.0822338703489131e-08  3.1698147129216312e-12  4.5235081593937911e-12  1.7718020089348368e-11  9.9350879325332368e-10  -2.7011750889519746e-22  4.5974587620600615e-20  5.8601493540840122e-07  9.8531060601551703e-13  6.8710772451736888e-13  1.3800451974057635e-05  -2.1009128844905382e-15  7.6203384602267508e-09  9.7122453514349957e-17  2.6859702079791114e-08  2.8809812164359386e-08  9.8683727951845403e-17  5.0875500422016715e-20  1.7726986420425793e-04  3.4522845649073969e-07  7.4802459747478198e-13  1.4175265921729379e-11  1.3256063382162556e-11  -2.8874617272819998e-20  -1.5352485974140948e-17  7.9503489217962995e-18  4.2955251056562118e-03  1.9443686595229829e-09  3.5856560964193804e-16  -3.3636661255373137e-15  -2.4464718589841351e-13  1.0980873398523086e-11  8.4838394365965316e-14  5.6669586760893557e-14  4.7235326049201840e-07  6.8963118249619927e-07  7.0674238617851423e-12  4.9672963386535302e-18  -6.6581169557536550e-13  6.7534382957958501e-10  1.5654397783677668e-16  6.1758341192349162e-12  3.0072732857580392e-04  3.7247184834462733e-09  2.7882327745073625e-11  1.5125466619049271e-13  -7.6667797764135977e-16  -3.0996277200314140e-20  1.2463713212259996e-13  7.3585817260835159e-05  1.3541628392673372e-09  3.2295286728535765e-12  1.2698818021948314e-09  -1.4461910980624719e-12  1.1306541054366912e-11  -9.0587001978723960e-12  9.5787030916224878e-11  7.0729715172777949e-17  3.8203685716989740e-13  4.6516855570035572e-07  4.2195686735256688e-08  4.8005578140015398e-08  2.7026716652230051e-07  4.4330837021503491e-07  9.8897436721327543e-10  1.2007882085711651e-08  1.4525637688438320e-13  1.6658264297978660e-13  9.5492102239273932e-05  1.4285766319527636e-18  8.3908307566671466e-04  1.1534728796168560e+01  -2.3977604747414689e-18  5.5846192561569247e-14  1.9352247968679562e-06  6.6481080536601294e-11  1.6000838173655036e-04  1.4477412206430320e-13  7.0196536967612795e-20  -8.8746559540225666e-18  1.4233885300304034e-17  -2.3033717658945727e-17  9.0706659852857473e-10  5.4054728112063381e-08  -8.2078572309150302e-13  6.1626203654454661e-11  -3.6329711394743964e-17  -1.4265678602238223e-07  5.4989880021531805e-06  2.3129089357929464e-05  7.4065967556026970e-10  1.0122108540697677e-12  8.0851143629048594e-10  3.1455218019054791e-05  2.8453674755506453e-06  -5.1153959879657143e-06  2.2182519538244248e-10  -2.8858292019975232e-12  4.0365966531246116e+00  3.5711609049832874e-19  1.1326478179537325e-11  1.2854841360916472e-11  5.3770192840132335e-08  1.2176400255584344e-13  1.1380539951654258e-11  -6.6476268120658175e-17  6.3539152941793384e+00  2.5762894012382740e-06  2.1956230196047439e-13  -7.0182612356366573e-09  7.1539388076283955e-11  -1.5998077384801969e-17  9.4328639148684289e-10  -3.5121149815314660e-13  4.1968751458511948e-06  3.7031269255480095e-14  1.1564392312350149e-14  3.2472073142640579e-12  -1.0284582848094903e-12  -2.0254303137925932e-18  1.6127100754170611e-11  2.9892314218341948e-16  2.8818806366453964e-08  4.7088793876444068e-11  5.3766946809984914e-07  2.4001459766427401e-16  5.0420108890278769e-08  2.6651702259625857e-11  -9.9225146184169166e-19  5.9336044281930036e+00  1.4131986061837294e-14  3.6027318446457918e-10  1.0028740480016302e-11  7.4356298941674001e-10  6.7981399863815414e-09  -4.3367597508641377e-18  1.0408916932588432e-09  2.2172392693424432e-02  8.2095446900384802e-13  1.9799234396685248e-11  9.7914149630150975e-12  1.4434545498381990e-13  -2.0974430082653254e-16  9.1057445034511063e-12  2.1593818476375364e-05  7.6706897734987516e+00  -2.5039742131483869e-11  1.3855929806844018e-10  3.3377964438960630e-20  -1.0646455822241338e-10  4.9561458756281874e-08  1.2651278447814192e-06  3.1418005231949712e-14  7.0392417776219986e-16  4.2730517319218626e-16  9.0046137926629446e-08  -2.6962552591496459e-18  5.0217529910325050e-19  -1.1068089946583408e-18  1.5263814470190114e-16  4.7702295330060288e-08  -7.8767138677321099e-08  1.3466422947446628e-07  -5.5083006558219937e-16  1.2320972133348198e-06  -3.2694950858365826e-14  4.6152688636855290e-08  6.8784246750783729e-14  4.2897553341861663e-05  2.8540509136123842e-08  8.6277891593261977e-09  1.8552522386156679e-10  -1.4532445768008658e-10  -1.0118587734959210e-11  -4.7927711016107558e-03  1.0029832896588746e-03  -5.4980377160730114e-06  2.6793391820657515e-07  3.1307882922762998e-14  4.1366107712985933e-03  8.4912250310407495e-17  -5.9310992337908973e-16  -5.2342577651931334e-16  2.0196904730764355e-16  1.8248715273167815e-16  2.4911350470218393e-15  -1.9877882262577553e-21  1.1295259354121320e-06  -1.0626354073949716e-16  -2.6316136748736596e-18  -2.5342995070625722e-18  -6.4406317210296690e-15  4.7421164666455241e-13  2.7988594846013118e-09  2.0170646179883008e-21  4.5632150954660235e-21  1.5958212958075002e-14  -8.0833503589249563e-23  -7.8557354138466230e-08  1.8239488875164830e-05  5.6314999481550187e-05  3.2444625414881337e-04  -1.3631516358468899e-14  5.3662125921870176e-05  2.1958604170965129e-19  5.7088570550960539e-08  -8.0684555900179473e-13  4.5953820396387968e-12  5.1092494113815153e-10  7.2893777288140582e-11  5.2637269243496909e-07  -7.5168674978602173e-20  -8.3416525677474427e-20  1.0785078531487594e-17  1.9653142643894125e-18  1.2150022332345812e-15  4.9307658193453871e-13  5.7517423134655995e-08  7.5431957491716113e-12  -4.7821471023273919e-17  7.1802878393265372e-08  -2.4245055745315901e-10  7.5315386580636066e-09  1.1192246988102934e-05  -3.7876225328229585e-11  9.4035189937815339e-17  2.0889785890431127e-14  1.0111676242559899e-16  2.3317130250635079e-13  6.2083267434824774e-14  2.1821210555600222e-14  8.4966149030207532e-18  1.8279602391388249e-13  6.7565565788163707e-13  1.5419218274337911e-12  -3.6303907190704857e-17  8.4990178575783180e+00  2.7673828572865135e-02  1.5587832580384682e-08  5.3328138022097337e-19  1.4551921987290099e-16  -5.8647110425935668e-16  1.4029079215802395e-16  -3.1977357184467248e-21  -1.0676271762798038e-16  -1.8963732051501363e-20  6.1634493044464894e-03  -6.7977956337551279e-03  4.9430074282253671e-13  1.4992623096809002e-12  4.8093333752903410e-11  9.4754545383944378e-17  7.7967093663443109e-18  1.6329431437192956e-11  2.0368980492745826e-06  6.9982138438134987e-08  1.0552956293388107e-04  -9.2820699639589542e-12  4.8071548745181782e-06  2.4526712182961516e-03  3.4751433647650714e-03  1.0359755363560726e-11  4.8349039087846948e-13  1.1943830525952036e-13  3.0743413106737004e-13  1.4566012840042367e-15  2.9754533981198812e-17  -1.3189393461308875e-13  -2.2306777279493224e-17  9.8473624911954078e-19  2.7022937710019602e-12  -2.6395989985099366e-16  -2.1601045966997437e-16  -7.8177765647441296e-21  8.7026424325812125e-19  3.6028422502481200e-11  1.4046544486559157e-17  3.5034137771508221e-11  2.5502459019249176e-13  -1.9175922681985974e-13  6.0768815723755170e-17  1.1966083003295563e-06  1.8864974082663043e-10  -1.6759927615013464e-10  3.3001834194853814e-11  6.9606858743870566e-18  -5.4565179866279147e-18  -1.7197440741289880e-18  2.7752122041279914e-20  -3.9446013681300458e-18  1.0072346118750188e-20  1.4211836576868654e-10  1.0459026982348569e-08  -1.0260087306908143e-15  1.2830831117403931e-12  5.0275655796276356e-08  7.1422015956224040e-07  -6.3403995221762724e-12  -6.3021359272329285e-12  -3.0245923858094450e-11  3.1402097988442564e-09  2.0536475296119530e-11  4.9863033261879614e-15  -9.2827038640015096e-18  -4.7319821686460201e-15  6.5545173592087363e-13  5.2524063690133272e-14  -5.1221143565116961e-16  5.8749340903382891e-05  1.0776164818675919e-09  -8.1117413028755047e-17  3.5372774173235460e-05  1.1136157471832611e-11  1.8811973781138265e-11  1.7051377341872691e-13  3.9241608789480999e-11  2.8063611293246835e-02  3.7803863032565853e-21  -1.4242316735129405e-21  2.6984199117785416e-06  -9.9239422811496757e-20  2.9668965662036531e-17  6.0341451652839674e-03  8.2779232677526404e-01  -1.7453955643709090e-03  9.6118552079448941e-18  4.8484908074415728e-14  6.9845640270358791e-02  3.1666696239723834e-08  -3.8357557139316208e-17  -7.7792479331503170e-03  -2.7313151763109225e-16  3.1814751445802928e-21  1.8817825411675104e-12  1.1534733267703348e-18  3.7119409162682715e-16  6.2642488181882675e-11  -6.0458123391154094e-17  1.2824661747155975e-10  2.9851134775728846e-16  8.1803019849961277e-05  1.4370993743326598e-09  -2.5324048896867369e-03  9.9063819074173389e-08  -9.1313066590151260e-16  2.8889688823955168e-05  -5.4634522127125228e-14  3.1932387978653219e-10  4.6223516026896794e-18  -1.1923726190961106e-13  2.0305357544974791e-16  6.1892651648632787e-18  1.5586366510147803e-09  7.4958578133705879e-10  2.5799989363023508e-17  2.1646507524004357e-08  -2.7228853084766624e-07  8.1829743807031992e-07  7.9301443476517965e-05  -2.8408765671367979e-16  9.2070720974666837e-13  1.2883157888551829e-09  1.9476973954023671e-11  3.2569739223494516e-04  3.8341867027933813e-14  -4.8679719654322285e-15  7.3570563477702745e-17  6.8367978863276743e-14  1.3163422020871416e-12  3.2036723809578229e-16  4.0344751107475164e-17  8.1853360152445696e+00  1.5064688644205832e-02  1.5100349500672480e-05  1.2216606503044820e-04  1.3535003356276765e-06  4.5957515994358976e-05  1.1539458117001224e-06  4.0942598538036500e-10  5.7292118494757943e-12  3.6299986022293334e-05  -9.2087820666966147e-19  3.1628622445128135e-10  -1.4009361821971610e-16  4.6181873024154755e-09  5.9808676357697877e-08  2.5053503764663720e-07  1.7376835539073613e-05  -2.9696247219883490e-17  -2.1276862712818441e-17  9.4313167240239821e-09  -5.4607842513157930e-13  7.0023951402265579e-12  -1.6450715461643105e-18  9.9370383010795212e-15  4.7052418680071012e-08  5.3465094105061744e-08  3.0794533903972504e-17  1.2308751654799721e-17  -7.3977411608143647e-15  7.5739172243817805e-10  5.7767892802223096e-11  3.7503238830826256e-10  3.1204557625170439e-10  2.7045384306986641e-07  1.5424425513608270e-10  2.4542409516564495e-05  5.6808692777322009e-21  1.4908681259504235e-17  1.8489431758030394e-16  -5.6020786658510528e-12  1.3231979751793820e-12  8.5607254585672150e-18  4.4745137936665151e-19  8.2487295862422648e-21  -1.1587742142679885e-18  4.4442233717798288e-11  1.2703771919337039e-10  1.4544224839448124e-11  6.0724729812293525e-08  -1.3763043543101781e-09  -2.2712036060466329e-09  3.7394891604978863e-14  4.1796385272936336e-08  5.8285863267322798e-13  7.4073240961213652e-07  8.0577525490831810e-18  1.6112312966078012e-13  8.7128239592200701e-15  1.6783587900973991e-12  9.7162086249946835e-15  5.7175903091946089e-13  1.8158973317807887e-12  3.4908487929713473e-11  -4.3707298701949872e-13  5.7275856190660970e-11  1.4718414503182964e-10  8.2604356295862525e-19  -5.3505107586147019e-23  1.5666281059709550e-16  3.0753586510679747e-14  2.6834511565075641e-19  7.8596866370698351e-17  1.8859139405541246e-19  -1.8847214794140630e-18  -3.7207468019369070e-17  -8.6287351506683981e-16  6.9592711697954860e-16  2.5236941343136725e-17  1.2896775091763231e-16  1.1103025729096621e-20  1.4487261982641983e-17  -9.4260617337561737e-21  2.5613370905016495e-20  -1.8207723520541345e-18  4.1268298628867278e-01  6.1703818420112554e-07  1.6374393468133455e-08  -1.1846169522781906e-10  6.6431750063005721e-18  1.4133225877772756e-16  -4.5262843673693368e-17  3.9369837675646178e-20  1.6112629488074114e-05  6.3559170080591827e-13  -3.4044717626433371e-17  1.5614322982529468e-05  2.2123498551295262e-18  7.1220013397008813e-09  -4.5364077588004928e-14  3.0977611068043055e-07  -7.4838034228638739e-16  3.6975087128744916e-04  9.4161786754028821e-10  1.5310265219793855e-11  1.0412012