<?xml version="1.0"?>
<VTKFile type="UnstructuredGrid"  version="0.1"  >
<UnstructuredGrid>
<Piece  NumberOfPoints="3002" NumberOfCells="5870">
<Points>
<DataArray  type="Float64"  NumberOfComponents="3"  format="ascii">323455.6100285493 6048753.88242996 0  323455.6100285493 5954782.59950515 0  405920.1480513444 5954782.59950515 0  405920.1480513444 6048753.88242996 0  405920.1480513444 6001768.240967555 0  323455.6100285493 6001768.240967555 0  364687.8790399469 5954782.59950515 0  364687.8790399469 6048753.88242996 0  364687.8790399469 5996367.117560402 0  323455.6100285493 6025261.061698757 0  382226.6271443229 6022560.499995181 0  405920.1480513444 5978275.420236353 0  323455.6100285493 5978275.420236353 0  353897.8957397301 6022560.499995181 0  344071.7445342481 5954782.59950515 0  385304.0135456456 5954782.59950515 0  405920.1480513444 6025261.061698757 0  354379.8117870975 5975574.858532775 0  381582.8168806895 5978840.396198289 0  384950.2598624413 6001768.240967555 0  344643.0480768835 6003429.02033719 0  344071.7445342481 6048753.88242996 0  385304.0135456456 6048753.88242996 0  339717.0321562298 5986078.187627405 0  337515.036058786 5969821.016310448 0  368062.2614420265 6013076.224998265 0  368062.2614420265 6032044.774992097 0  393987.6142659165 5988729.699941677 0  405920.1480513444 6013514.651333156 0  392856.2821527076 6034589.119828064 0  393514.9611654527 5968369.338068204 0  339399.8087404341 6032061.482581838 0  323455.6100285493 6013514.651333156 0  374995.9462927963 5965504.865595459 0  354379.8117870975 6037976.901948514 0  338123.9088969378 6017031.529131207 0  367397.3120126425 5982072.559192053 0  351882.5752379905 5991998.990225234 0  376945.425450199 5991232.708824487 0  392265.0061656896 6013300.936254065 0  357029.7426706699 6006608.947964352 0  380093.6207558212 6036880.127749795 0  323455.6100285493 5966529.009870751 0  405920.1480513444 6037007.472064359 0  405920.1480513444 5966529.009870751 0  323455.6100285493 6037007.472064359 0  333763.6772813987 6048753.88242996 0  405920.1480513444 5990021.830601954 0  323455.6100285493 5990021.830601954 0  362879.3643765316 5966837.319094267 0  348367.6438548031 5965604.161682394 0  334493.1989038612 5996935.948935225 0  395068.5043068817 6023875.372615605 0  348216.0324377587 6013504.844950221 0  379305.9090074943 6011603.390019651 0  372523.5158233726 6003480.000732267 0  395435.2039568929 5999384.346358113 0  395612.080798495 5954782.59950515 0  333763.6772813987 5954782.59950515 0  395612.080798495 6048753.88242996 0  374995.9462927963 6048753.88242996 0  374995.9462927963 5954782.59950515 0  354379.8117870975 6048753.88242996 0  354379.8117870975 5954782.59950515 0  335074.5981535012 6007206.680367459 0  391925.2695590468 5978591.908877409 0  371969.1707190623 6022560.499995181 0  383872.162544519 5969415.106147043 0  358038.7139835292 5984533.09712744 0  369699.869182786 5973102.2359358 0  369841.9126663716 6041099.453006387 0  343176.7440329155 5994428.220622956 0  362933.5332293962 6024385.235173292 0  330640.1760208776 5984148.625419154 0  348684.7494355051 5983110.856817525 0  399094.9690929834 6007537.420809742 0  345447.6324516311 5974162.84917082 0  332859.7749513451 6039150.972778062 0  344517.044630671 6024057.945416138 0  332973.1214415312 6025037.914505113 0  341428.0126373461 6040493.820728126 0  385874.264691618 5992757.40885039 0  350337.3662538711 6030387.535304286 0  359887.2373602368 6016186.250094838 0  377097.8989316926 6029115.217702097 0  338917.7109078235 5961484.016839475 0  329495.5261590715 5972402.215053552 0  336644.7280634616 5978216.610794215 0  330688.6715098422 5962480.256438018 0  359899.8039476132 6031963.415584587 0  399746.255941904 6030426.523907755 0  385511.6875144855 6030368.508996127 0  387377.735783329 6040763.821024337 0  398832.192399829 5974431.100387635 0  387992.9498994246 5962432.032572681 0  405920.1480513444 5984148.625419153 0  364925.7641745284 6005782.953640081 0  361769.877068089 6041226.651684469 0  398452.9199001931 6040850.732439541 0  398946.6205243983 5962252.502309519 0  362305.5577564609 5975984.89789681 0  356822.8065216601 5998470.186307689 0  386900.7115926162 5984820.732438302 0  329528.0119279922 6032067.230024892 0  331139.6939744562 6013813.572928222 0  398457.5876798834 5982541.698799337 0  405920.1480513444 6019387.856515957 0  398685.5166750694 6017257.578706384 0  348587.9424884976 6042755.309150081 0  369841.9126663716 5960143.732550304 0  380149.979919221 5960143.732550304 0  359533.8454135222 5960172.384722514 0  377147.8814772839 5972649.581024994 0  341756.3455763521 6010124.092444684 0  355615.8176864882 5966311.193813809 0  369144.4338274571 5989807.770003954 0  375185.9047422862 5983510.422041401 0  323455.6100285493 6007641.446150355 0  391856.7960121195 6005888.565703365 0  371978.0245217044 5996361.134308098 0  405920.1480513444 5995895.035784755 0  378877.1880032702 5998073.745937059 0  359056.6617417652 5991643.489540118 0  399278.8743430426 5993436.466134224 0  386116.8775939071 6009922.097099247 0  323455.6100285493 6019387.856515957 0  388994.7833819839 6019826.789191471 0  348897.6207366391 5998116.079250046 0  345456.3301153719 6035064.814295612 0  323455.6100285493 6042880.677247159 0  334124.3013408988 5990072.953472659 0  377097.8989316926 6018059.782440464 0  323455.6100285493 5995895.035784755 0  342871.8474798963 5980154.238874755 0  373596.9793292385 6035659.183886081 0  380149.979919221 6048753.88242996 0  376327.9292813152 6042294.581731233 0  329163.3548105369 6004704.843558955 0  350303.9432136903 6007093.032074522 0  383982.6552804571 6015912.664375832 0  345515.490569988 5988567.439252969 0  379019.812877927 6004678.052169549 0  365541.9137639466 6018750.691894444 0  349225.7781606728 5954782.59950515 0  352493.3399767278 5960815.406895458 0  363683.8130458911 5986976.225872464 0  386666.791301207 5975084.583584332 0  368937.6553346639 5966171.092344863 0  400003.9882214358 5968352.273777306 0  328776.0063842635 5992958.433193355 0  339958.4428758043 5999572.344589042 0  354577.7732363954 6012555.454074449 0  328609.6436549741 6048753.88242996 0  382053.0280278458 5988228.496807038 0  330708.6817934912 5978212.973348036 0  372084.7734679543 5978495.086505585 0  358568.2738174705 5971419.415228934 0  328931.2672829705 5998832.905089681 0  323455.6100285493 6031134.266881558 0  405920.1480513444 5972402.215053552 0  405920.1480513444 6031134.266881558 0  323455.6100285493 5972402.215053552 0  405920.1480513444 5960655.804687951 0  323455.6100285493 5960655.804687951 0  405920.1480513444 6007641.446150355 0  323455.6100285493 5984148.625419153 0  405920.1480513444 6042880.677247159 0  346648.7613474604 5960023.05127712 0  342415.3891593561 5966358.988213831 0  350507.6510228226 5971111.740321856 0  391773.9667214506 5994456.117700323 0  338875.8905424621 6026088.827345025 0  361429.1735454847 6010511.262533597 0  389395.7028803263 6025805.543023561 0  392895.6464692951 6043315.288173481 0  332846.8296575367 6019296.633131165 0  373337.4404588729 6009693.515402478 0  336544.3064612215 6043648.151399015 0  348610.2411382072 6019567.839754772 0  381943.4597763228 6042183.394750732 0  355630.0631288611 6028071.82801846 0  363941.5238882306 6035967.852698964 0  328179.67203552 6022271.326978176 0  401066.2857736665 5998807.415073814 0  344387.1099621175 6029612.545574771 0  393435.2235156003 5960233.556458537 0  400735.9970493424 6022675.638064924 0  393708.5772019727 6029179.837160029 0  400609.0696943338 5987857.851798974 0  361753.6614662939 6001152.171757337 0  400766.1144249197 6048753.88242996 0  353363.0524357285 6002630.165620538 0  343248.328463803 6018790.640008039 0  356419.8105951758 6043365.392189237 0  390234.385899412 6000759.497967276 0  368336.1168551637 6000220.532318851 0  328609.6436549741 5954782.59950515 0  387520.8298169724 6035372.992507171 0  400588.0280660195 6035823.299583429 0  329021.6598427091 6043194.252697862 0  393371.710206733 5983576.325812268 0  393638.9721728675 5973623.513063556 0  371727.9212466564 6017113.044457142 0  364687.2762977295 5959941.212693035 0  374995.9462927962 5960346.83186599 0  369841.9126663716 5954782.59950515 0  400766.1144249197 5954782.59950515 0  338917.7109078234 5954782.59950515 0  369841.9126663716 6048753.88242996 0  359533.8454135222 5954782.59950515 0  390458.0471720704 6048753.88242996 0  338917.7109078234 6048753.88242996 0  390458.0471720704 5954782.59950515 0  359533.8454135222 6048753.88242996 0  380149.979919221 5954782.59950515 0  349225.7781606728 6048753.88242996 0  339867.4956514095 6005339.817053361 0  333737.9460226952 6002130.523287664 0  336955.8140048417 6012008.440073739 0  377097.8989316926 6023232.32559834 0  371748.9790486701 6028016.629988787 0  338146.5171983215 5993298.164761053 0  355016.8390227688 6017610.913088997 0  393953.1528190996 6018968.416019509 0  335185.8133477239 5965142.63403323 0  328616.6041642396 5967263.80307608 0  380314.9487662361 5965460.362415641 0  354622.8993466098 6032976.142863722 0  328521.4725131759 6027215.026914048 0  334465.0783479523 6034070.534389696 0  328123.6212682287 6009699.206425843 0  381889.5169855529 5973936.741901617 0  359122.3484437474 6036790.002992895 0  386341.6533148278 5979963.279841923 0  400798.2159679119 6012477.871311778 0  388538.3765260249 5967461.292146791 0  340833.8784183678 5975728.708105717 0  355307.6239213505 5988552.151815021 0  362181.4274823388 5981261.937800813 0  353784.0322742948 5981044.538811012 0  358045.1698423899 5978741.391518688 0  328423.7350325213 6036912.015930048 0  366897.6876966125 6027277.723668203 0  347355.1745641421 5978532.307510624 0  376820.5060332146 5979033.270735624 0  349378.1778589479 6024378.632814493 0  327189.2282939323 6016451.253924556 0  338433.8773236172 6036753.902881841 0  350141.9760340559 5987605.90026687 0  363794.7083927878 5991713.491814731 0  350325.1285660182 6035273.515460094 0  382355.9358007369 5983507.499638396 0  327107.0747437811 59811
[...]
<PointData  Scalars="f_39379-1"> 
<DataArray  type="Float64"  Name="f_39379-1"  format="ascii">-2.4299775651927452e-22  -1.8581155137347943e-21  -9.8261187817169109e-18  1.3376783277759139e-20  -7.5729607842414493e-11  -1.3972636740243452e-15  6.0491839844377200e-15  1.9352880383647860e-17  4.2321588334440580e-01  5.0962263751624005e-18  -3.3662595201467377e-10  7.4459019151349434e-12  2.1393332159464459e-17  5.9403929085746387e-09  7.7986375502939553e-18  8.5261896530770842e-14  1.5919246871989976e-13  4.5532110679724587e-10  6.5773921452081902e-06  1.6086625471710293e-03  2.1467062835880097e-08  -7.5531641752205423e-18  -3.1711374600809502e-18  -1.5647546006980804e-11  -8.3197262418127145e-16  -1.3398392117384671e-04  7.9935642652410832e-11  3.5446062657240883e-06  9.1320746957602363e-12  2.2201388717117419e-14  -3.8492856593248535e-11  1.2965862537891543e-17  9.1233658446102072e-17  2.6406000135979633e-10  3.1398817949005373e-12  7.8672262309538700e-12  4.7788419070009838e-05  5.2886458473948847e-06  3.8815664730961927e+00  2.0169379310544514e-07  1.6930323476119493e-04  4.4048613493038091e-13  -2.5494936192210412e-21  7.9644811620829772e-18  3.5557901486490924e-13  6.8214032942097366e-19  3.3334943730561320e-21  -6.8912824367227763e-11  -1.0166596002749104e-15  2.2311302575271650e-10  1.4245112315157876e-14  3.1897036388589024e-13  -2.1535526727609827e-13  5.0311450980568139e-08  2.0598555498807050e-05  2.2817284213274855e-01  4.4222708102059948e-06  2.2497470523592496e-17  7.8605755303887417e-20  -7.3693746443232069e-20  -7.5944492418350357e-17  -8.0613764514909636e-15  3.5684783174405788e-17  2.2313237897929051e-16  1.0210429165671273e-10  -2.6946623469077693e-08  -5.2125054815960367e-08  -1.1114326034868291e-09  3.1568444322170774e-06  2.3074287588082140e-07  3.5631122149523880e-13  6.4827943873927231e-08  -1.7093029161119307e-08  5.7849823588900053e-14  -1.3073447799041001e-09  1.0698446963904370e-08  -9.0047352326989120e-14  6.5877682891714306e-19  3.5494881183719565e-11  2.0211579256983169e-13  -3.3384098947058528e-17  2.8769247559147906e-02  6.1740745071464213e-11  -1.6112991113747445e-06  4.6324824201218165e-12  8.9524269215732647e-18  4.5687714626421398e-17  2.2903664266476835e-13  5.3132992906833758e-19  5.8579696565995383e-12  8.6962174112920715e-16  7.1822105639024079e-13  -1.5374712359647830e-17  -8.6456229877491585e-12  -2.7728304763779992e-12  2.7718063599401524e-10  1.0822437320811336e+00  6.7168532829221849e-14  2.7520574293171101e-18  -2.9198312845840125e-14  6.9631986207379354e-09  2.8225602822774956e-03  1.6121693605550429e-04  -3.3934471470946633e-17  4.7118843391087398e-14  3.4792287434170227e-09  1.2602361693738571e-12  4.1616760703209672e-10  -7.5829260737502241e-16  1.2772955039285997e-13  -4.1210517704980146e-13  2.2449363996868741e-13  9.0161245973514962e-08  -6.7598227947647522e-10  2.8933715572919088e-12  -1.9835463917886547e-05  -9.3873202076150857e-05  1.6087686592301733e-15  2.8003729299597559e-06  6.0469614056058090e+00  3.8791490308502931e-10  1.8433655697269573e+00  -1.6007172046040284e-04  1.6920242472014988e-07  -2.6114747788245685e-06  -9.3148528417603499e-17  -5.5422747454916285e-11  6.5964661311931036e-08  1.5178008739494282e-13  2.7455999217740537e-20  1.5312977780553110e-11  3.5056231796048326e-06  -3.1179482592573153e-16  2.3047217045225473e-11  -7.0893541009488006e-13  4.5208281298421317e-18  1.4836597003517724e-14  -2.8146136528416202e-14  1.0799305910177213e-06  1.1698922622446560e-07  -8.9340462313081352e-10  1.6402483405528825e-03  -1.1848944234940460e-06  -3.1385308249922716e-17  -4.2237267829398017e-15  2.8316448430359536e-04  3.8857141579915837e-07  2.8659359886880022e-10  4.9223801889240461e-13  -5.1682458117823255e-14  -7.9618088590257559e-10  6.8362364842178870e-06  -8.3665569618879014e-22  -9.5544840181117207e-03  -7.6534274994576101e-16  9.9164509680771184e-07  8.5067755541173160e-10  4.0253364963134251e-14  6.8298556246492243e-19  4.1967667449583934e-12  5.3775799766396795e-16  4.7259056301570585e-19  -8.4631302731108920e-16  -2.2048181670836591e-21  1.9666259637705229e-12  6.1494752972976112e-16  1.2253175227685210e-19  1.6632949023012106e-16  -7.8082770272989074e-17  7.4913328280872684e-12  4.7099440022581446e-05  3.8196400358695029e-13  -9.8161363375988422e-05  1.2568633156436676e-11  4.5855085080769801e-18  2.0483073767589071e-13  7.3768188879471351e-04  3.3562847934760924e-19  5.5437684906358329e-09  4.3232211124909844e-16  2.4932498533028924e-10  -1.5602262293824894e-13  -1.7041382733261645e-17  -9.8005431497168998e-10  1.2024812166129935e-12  1.1218876934296267e-12  6.5923334181285380e-13  1.8428356997063438e-13  -5.5417313779795338e-10  7.6686775113454542e-01  2.1851125853285996e-20  2.8138782183773162e-04  -7.9073450108957903e-11  -2.4208173281825875e-16  -1.4714641096584766e-06  8.2895525285920311e+00  -6.9274427083377312e-21  3.8675255112851142e-14  2.6500747177301566e-17  -9.4469844172707738e-21  -2.1818048854815214e-08  2.4571247168289699e-09  -1.4833175833358174e-06  4.0642803856532057e-13  7.8351908926780357e-13  -8.3868944033541027e-16  5.9267082863836807e-17  8.5704800092924570e-19  -4.8243579549077439e-18  -1.9517000034580083e-16  4.8404943440890904e-19  1.9282658390686269e-19  1.4992036165535314e-14  -4.1893931103838788e-17  6.5874848749461818e-15  -5.3948452179992006e-17  -2.0608751020136340e-09  -2.0916943803741493e-12  1.3548436390124130e-10  -5.8483247336905996e-09  8.8598712149859510e-10  3.6444143625885192e-10  5.0133447632286335e-08  3.2107819443415732e-11  -1.4456813387112285e-17  -1.3680257662826631e-18  1.1053118451191804e-10  3.7748049927324387e-11  1.1723340380646995e-16  -1.3200892477353114e-18  3.5068386593664745e-13  8.7846544398299869e-09  4.1378087978217097e-13  1.2153456185667356e-05  3.0954624818083894e-10  4.1844299311292698e-10  1.5331223933583191e-12  -2.4943975191007840e-06  1.1995512924446299e-06  2.9770751188047634e-10  5.8694245891809674e-08  -1.0052533800765293e-18  2.4684587398400462e-10  -4.7049097261590224e-11  -1.3054821296146818e-06  6.2383022045893113e-10  -1.5846479420473041e-15  3.3620027771246266e-17  1.6795557148031901e-07  2.0594382011614031e-02  2.8823584750359584e-13  -3.5959065761756475e-04  2.7576893078836569e-16  -3.2261570470786840e-13  -1.8071503972867157e-14  8.1404254539140561e-02  1.0143509271136307e-08  9.1029124428606140e-09  2.1710247218808493e-06  8.9640179830085353e-15  9.8661325117874740e-16  7.5991703999470710e-12  2.4245062564908912e-17  3.6965345772228198e-17  4.3787145173503432e-09  7.4301798475991468e-05  -4.8151785051926609e-16  1.5743061744630726e-03  4.9934436490411340e-12  -6.9413211560230105e-08  7.5876304211917907e-05  2.1077711122869780e+00  5.3811825593574649e-08  1.8312966467018646e-14  2.8246949699193851e-07  6.3685869068219220e-09  3.1461031105339913e-07  8.0505215076080001e-08  -2.6898756415392628e-05  -1.0950958233016934e-10  -8.6508867781144726e-10  7.6361354260346419e-10  7.8207797575355670e-06  -7.3219842366532679e-05  7.5269403531570841e-04  8.0794749036386779e-17  5.3300403089105633e-09  -3.2295495249906271e-18  1.7129911142098397e-15  6.7630513534373259e-08  7.3169728127893021e-11  1.3634454001938922e-08  3.9750280247825155e-18  -3.8490279324292961e-11  5.1353462089373133e-13  -3.3469709830141691e-03  1.0434110070523787e-13  6.6389048356492506e-19  9.4345632711503397e-18  1.2764795583418884e-04  1.5769144379804184e-13  -4.7800453005637158e-14  -4.3303754198712333e-17  1.4989759176888579e-10  -4.5760268906810984e-20  1.9405324061793482e-18  -1.0908497354729874e-19  9.4003337806319698e-01  2.5499817193458290e-16  -3.7127584092748024e-03  -5.1571456605409894e-16  -8.3763362272709840e-20  5.4962470999940422e-14  1.6235613517711680e-11  3.0755088277315580e-13  3.9442322754670255e-13  4.5920621155884552e-10  -2.6166081268944187e-12  5.7048966015230686e-14  1.1687226795924008e-13  2.3464085002450999e-11  7.5269217932885443e-05  1.7148068548697906e-02  5.1203077669498519e-03  -1.0547282254535297e-15  5.3931919766986961e-11  -1.8608929313200186e-13  8.3969942891362425e-21  2.7837046235360683e-19  5.3929760076381553e-11  4.0499226025713867e-11  3.9235194110117718e-11  7.5457123113690667e-11  8.2101876172198454e-14  5.9679486965072195e-14  4.6574747489402096e-16  -4.9743116776962762e-03  3.1423100515714414e-09  2.9540376504103556e-12  1.8090049692518564e-07  4.9773985476905336e-03  -5.2710702846554798e-03  7.6348486168046625e-01  5.5663838443165070e-01  1.1815883114130485e-15  3.4986219950962823e-06  -1.3045203729182128e-12  1.2060831437015819e-11  -1.9776697418069882e-11  4.1819815915458417e-09  1.1209824703646244e-21  -1.9231563887041195e-19  2.5129051685049809e-06  2.1629097503899716e-12  -6.2654207726052968e-13  6.3287710196800802e-05  -1.3229981063625928e-14  -7.0834932248977927e-08  -2.3005361103792510e-16  1.7184368531917813e-08  6.6406721711613026e-08  -4.9928941887150071e-17  4.1030955246775398e-21  4.6257620158340600e-03  -1.0339350061812285e-07  5.4836118887071509e-13  9.5830745671736558e-12  1.5422742210258890e-12  2.0553845036708702e-20  -3.6044736499994199e-17  1.9419505694674003e-16  -5.9068633521388468e-03  4.5427118226534401e-09  3.1163720936152787e-15  2.8944565380734111e-13  8.3479920092595597e-12  -5.2098466474596617e-14  1.2413679068759074e-14  2.2950809501476390e-14  3.7817161448443625e-06  2.5855775323188140e-06  1.1828275489691716e-11  2.2943142995633235e-18  -2.1687622557455705e-12  -1.6319468062565909e-10  1.1114421597760154e-16  1.6569676537678841e-11  -4.7824980966862131e-05  1.3635836111305500e-08  2.0852207368939764e-11  3.7343263998963324e-14  1.1463272276421812e-14  3.5216900937615811e-19  8.3010611590793865e-13  2.5043852162179043e-04  2.7806928915850928e-09  7.7133180223177669e-12  8.0912735020505390e-10  -1.6337641980958697e-11  8.9092171845021123e-12  -1.6222908220397369e-09  -3.0770853306287458e-10  6.3196172613304388e-16  6.9621211337883429e-13  1.5420045630405440e-06  1.6687301722627360e-07  4.2070779670845454e-08  2.8590781052271289e-06  1.0896983610562167e-04  -2.2322026616121230e-09  4.6134800345275152e-08  1.0521489395223715e-13  2.9956554619198995e-13  1.9170358448247345e-04  -2.0499238187184447e-18  -2.5803777343924345e-04  7.7966169493716899e+00  -1.3014847398825362e-18  1.3709865460442436e-13  3.6571795027372396e-06  -4.6509938147203626e-11  -1.1004119342465117e-04  1.1167117525695636e-13  1.9401018222744186e-17  -7.0785841415243036e-17  -1.3927851368290688e-16  2.5013335880536069e-15  1.2105868459911155e-08  -1.2775896293470896e-08  3.9119757011874357e-11  4.0986029065506720e-10  -5.7987089354642545e-17  4.5441127462527204e-06  -1.6309834712057521e-06  1.4711562428735956e-04  4.6158580591517617e-09  4.9513003204605668e-13  2.0051141617098115e-09  2.8289973183207309e-05  3.0568864238566695e-06  3.2206691351103421e-04  -1.5073964658525168e-09  -4.6229656270951378e-11  3.9594866725644935e+00  9.8073528986201191e-18  4.8043443191575418e-10  1.4226136065234571e-09  2.0660119606965232e-07  8.2834520777218000e-13  3.2886788197962397e-12  -2.7224324990561542e-16  5.3414304699061708e+00  1.1856016650102127e-05  -1.5566219151375560e-13  -1.5203306601320286e-07  -8.3102209825811452e-11  1.2879979909539965e-16  -7.3984745351658622e-10  1.0371187546554322e-11  4.8491551909558008e-06  1.7799239080764334e-13  3.4279496852849392e-14  4.6563802342262499e-12  5.6363280835120280e-11  2.4359183932473765e-18  6.1272478447325738e-11  -1.4964670866941466e-16  1.7818544652466180e-08  4.3899764448331713e-10  3.1368857145134707e-07  3.9380821567119194e-14  1.0234951565214474e-07  -4.8062695868807228e-11  3.9808941126587566e-18  4.7172169095088892e+00  4.6249448146663735e-14  -3.7958989046114035e-11  7.6844198889825811e-12  -9.0356104131698458e-09  1.3797685164531235e-06  -5.0371186499706782e-16  1.6428288256067611e-08  2.0799245582099612e-02  1.0808850063646831e-12  7.6597456779679977e-11  5.3658424364184805e-11  -1.2428608976404610e-13  8.8416222519743053e-16  -6.4237450273935294e-12  1.0513630875219554e-04  5.9912959704340851e+00  -1.2868696578515673e-10  6.4254300153040383e-10  -1.3716309612204655e-19  3.7332908465968676e-09  7.8817294942058309e-08  5.9449099065027756e-06  1.0013573449515008e-13  9.1532227645670747e-14  -1.3781229809307973e-15  -8.9931853425567720e-08  1.7650697933906776e-17  7.9948938157074389e-18  5.3261519951102863e-18  -1.5353169422181120e-15  -5.1802143731960337e-08  1.8307912175359328e-05  -7.9893038492119239e-08  -6.0293416965104211e-16  1.6300599443820835e-06  1.4227686135786209e-12  -5.2736051920421954e-09  2.3755873203551853e-13  2.9245639667737651e-04  2.5843283497343130e-06  1.6740780999593402e-08  1.0696437835192851e-09  -5.5020374186954900e-11  9.0487616248233682e-09  -5.7406041808510007e-03  7.0810262621457927e-03  3.6871545107454765e-04  4.7374111082111285e-07  7.1259234984918793e-14  1.2603630783061752e-02  2.0975199942211451e-16  -9.2124216873747305e-16  2.5258283643677964e-14  -1.3543431485814156e-15  -9.0921237153447981e-16  1.9954637220124221e-14  -3.2806328909814980e-21  2.4591803939497743e-06  1.7504530905553298e-15  -2.4026110327193745e-18  -9.3604579133498088e-18  1.8651106046959281e-13  -2.5525785182197903e-13  1.0112335958531738e-08  2.1611737583654822e-21  4.2119432850936267e-21  1.5966702591639233e-14  5.0486061067586050e-22  -5.3798902450211157e-06  1.0257281864647835e-05  1.4401340710921062e-04  -1.3252293902024875e-04  -9.3812295431805032e-14  -2.1093241185048271e-05  2.9825037562168204e-19  1.9728010479668759e-08  1.2113063722023983e-11  2.9015366505236453e-10  1.5313111880929167e-10  8.5503858561622426e-11  1.5278889308792696e-07  -2.6668310769765336e-20  9.1313304631379975e-21  4.9826663046066686e-18  -9.0839934463206436e-18  8.5910028408021631e-15  -7.8535113858148254e-13  1.9850988217278976e-07  -1.7981283290500368e-10  8.5503438401936648e-19  8.9538115272329640e-08  4.1048922104136900e-09  1.5173209662159963e-08  1.6075689606897495e-04  5.6169282256439700e-10  1.9124151267738871e-16  1.1268746892298749e-14  -1.4886968134108006e-15  3.7074597583722417e-13  1.5631007107126554e-12  1.0542359108247387e-13  -2.8942759424713870e-17  6.3439442164893643e-14  3.8487143086703102e-12  1.8130703218913309e-12  -3.5973527073219527e-16  5.9912810293511454e+00  -1.5257037366435619e-02  1.7768086450354588e-08  -3.7491687294466853e-19  -2.8238774889058645e-16  6.2615795899950818e-14  7.2091101769677477e-16  2.3888057514711252e-20  1.5776951658288686e-14  -4.8508043855924117e-20  -9.9941171375666441e-03  1.8265871823415941e-01  6.1554054820431623e-13  -2.0739688501169156e-12  2.5781727164223597e-11  -2.1392408659286162e-16  2.9901070027239294e-17  3.3267851735154694e-11  -3.2660154579090131e-06  -9.2599851378056478e-08  -2.4090845362282486e-05  -2.9153771114296078e-11  -4.2468101092819060e-06  5.8184426731656969e-03  -1.1222569047463504e-02  5.1565827495444680e-12  -1.0210373911231847e-12  1.1690924594473435e-13  9.9646009891207923e-14  4.6451120227757138e-14  1.4240256084162240e-16  -1.6078294927445930e-12  -1.5440691395512291e-16  -1.2623613434492627e-17  2.5738976699408596e-12  -6.8299975402230857e-16  1.6548253101685040e-14  -5.9201455984488980e-21  -1.6820897535585767e-19  1.4082090234195814e-11  -4.9760152212768580e-17  -1.0418409602052396e-10  -1.2022526859409840e-13  3.3045097104272783e-12  2.2522135018018907e-14  -3.8177700649884519e-07  -3.3022515973052580e-11  1.3986779120825082e-09  8.2504797021289855e-11  1.0939172844092426e-17  -3.0263351259509803e-17  -7.9737928015460494e-17  1.4550555026824576e-20  3.3974520654574544e-18  -2.0763787049232929e-19  2.7708491634682257e-10  8.6453544342438481e-08  1.3990775667797756e-13  2.2697494117738608e-12  1.1682194502360260e-07  6.2442859796269411e-07  -1.1537695465719760e-11  6.6680816419760740e-11  5.1738778971713960e-09  5.9052013190332045e-09  1.2243312775414262e-10  1.0530820655641199e-14  -3.8555807004306617e-17  -3.1920182431000785e-14  3.0740273251253466e-12  1.8403049358691437e-14  1.2325342072451853e-14  7.7266162231335693e-03  8.8818385168426602e-11  -3.5600105410234373e-15  5.8778893112103741e-05  2.2261802200622152e-11  -5.9846139834586239e-12  8.4446031917117438e-13  4.5005266697849085e-09  -4.8444855277380277e-03  -2.5280813853830041e-21  4.5201815097609923e-21  -4.7073543951239699e-06  -1.2291251878548394e-19  -3.4355680998669664e-16  1.2181748921637888e-02  1.6423034082891370e+00  3.6402455206758538e-01  2.1354462429416608e-17  1.1253187639453343e-13  6.1940166432715793e-01  1.1458228165648734e-07  1.4626233424038538e-16  -7.7228845269494695e-03  1.1786715632051770e-15  -1.6738138410960661e-20  -1.7224822163023946e-12  -2.1842846109062792e-18  -4.2021182248951194e-15  9.5611458780134452e-10  -1.2438918465424756e-18  -5.2761210509567512e-11  5.1806916012316585e-16  5.2981441424048122e-03  2.1886804338077758e-09  5.8672469360163981e-01  1.2997665708614179e-07  1.1074886199767495e-14  -6.4505285337542758e-05  -3.6942975488843792e-13  1.5770966318029224e-09  -2.6834503914472019e-17  -2.9422772869350000e-12  -1.3467402142198099e-16  -6.8264939773320492e-18  6.3183791893970277e-09  3.1942134594285530e-09  -1.1412660720910176e-16  -4.5530369528818092e-10  1.9934728289511788e-06  3.0773637914248124e-06  2.5163345123472902e-04  3.9172304322361582e-16  9.6134346809761643e-13  2.6396509425504048e-09  -1.9130305124387845e-11  3.5327000500806328e-05  1.7368912530286139e-13  -1.1132044423297860e-14  1.8281498828310377e-16  2.8220116795553823e-13  4.6918176965817379e-12  -1.1083280500201652e-15  4.7612893104588806e-16  5.9428208147982113e+00  -5.4450933029042267e-03  1.7382693733059804e-04  -6.3282303867718837e-05  4.8289557769471780e-06  8.7831466513570280e-05  7.8623666316887217e-06  7.7696675607535721e-10  2.0858302384102935e-11  7.1701534812375968e-05  2.0131719273111264e-18  6.1861881040630807e-10  -1.0083128136122711e-15  -3.5456605207906918e-08  -8.5985632932068515e-09  2.9808329113028029e-07  -4.5359469955566425e-06  8.9241910208674748e-17  9.4215202156938512e-17  3.8059178021807718e-08  -1.1073269366745071e-13  2.4840656677822883e-11  1.1021252409449261e-16  -1.6955753239329830e-14  1.5952011322728043e-07  -8.6525681612748029e-09  -2.2849196737753228e-16  3.5814823919173973e-17  2.6069987798056683e-13  1.1361445300083068e-09  -1.8973952507868813e-10  1.5770822749481767e-10  6.9338465885830310e-10  1.1547821138936244e-06  6.3576308388926247e-10  1.4571618505268665e-05  8.7396220458479892e-20  1.0363562895998431e-17  1.6196269715933252e-16  -1.3470136465732488e-11  5.2306638300495657e-12  1.7923641523791370e-17  -2.9930244410760495e-19  7.4789605256743287e-20  -1.4398668507404132e-18  -1.3836401829093499e-10  5.4791013976521918e-10  3.2400318968099898e-11  -3.3388701782152125e-08  1.2328231051175970e-07  9.8239439815948586e-08  1.2398003661050414e-13  1.6292622578275406e-07  1.1608231672868297e-12  2.8959618342990112e-06  -4.3781362067617912e-17  1.6966236384192879e-13  1.0161773192533941e-13  2.0893021852980093e-13  8.6014278861553636e-13  6.1982384918457084e-13  9.7774470621535426e-13  7.9926063205577993e-11  4.0463648778615741e-11  1.2732123352334098e-10  1.8507855728749755e-09  6.3116934117242208e-19  2.0063485480496916e-22  9.3790851025859014e-16  -1.0939993196936238e-14  -3.8259834136217301e-19  -7.0095425664121171e-17  1.8145886503991275e-19  7.5819000532199525e-17  4.2909030199041564e-15  1.1590342351349636e-14  3.7117411943450337e-15  2.0649149865416720e-17  4.4770385771675793e-16  7.4960971033210675e-21  1.4443601307360217e-17  -1.5283112215269495e-20  1.7859757555636683e-20  -1.5771008779686733e-17  1.3466636242403911e+00  1.3739022386403452e-07  1.2523886584390680e-08  -3.5063317809868603e-09  -2.2353374451188865e-18  -8.3268652374712220e-16  4.9115434657841651e-16  -1.7152624190819620e-20  3.1891223680539741e-06  2.9623792453611442e-12  2.1672978501033522e-16  -2.2069698740870108e-05  6.0530361992571398e-19  4.2609628863092946e-09  -6.0148497213965702e-13  -1.2412399033849117e-07  7.7293646301927327e-14  -2.8695668256207109e-04  2.74737