<?xml version="1.0"?>
<VTKFile type="UnstructuredGrid"  version="0.1"  >
<UnstructuredGrid>
<Piece  NumberOfPoints="3002" NumberOfCells="5870">
<Points>
<DataArray  type="Float64"  NumberOfComponents="3"  format="ascii">323455.6100285493 6048753.88242996 0  323455.6100285493 5954782.59950515 0  405920.1480513444 5954782.59950515 0  405920.1480513444 6048753.88242996 0  405920.1480513444 6001768.240967555 0  323455.6100285493 6001768.240967555 0  364687.8790399469 5954782.59950515 0  364687.8790399469 6048753.88242996 0  364687.8790399469 5996367.117560402 0  323455.6100285493 6025261.061698757 0  382226.6271443229 6022560.499995181 0  405920.1480513444 5978275.420236353 0  323455.6100285493 5978275.420236353 0  353897.8957397301 6022560.499995181 0  344071.7445342481 5954782.59950515 0  385304.0135456456 5954782.59950515 0  405920.1480513444 6025261.061698757 0  354379.8117870975 5975574.858532775 0  381582.8168806895 5978840.396198289 0  384950.2598624413 6001768.240967555 0  344643.0480768835 6003429.02033719 0  344071.7445342481 6048753.88242996 0  385304.0135456456 6048753.88242996 0  339717.0321562298 5986078.187627405 0  337515.036058786 5969821.016310448 0  368062.2614420265 6013076.224998265 0  368062.2614420265 6032044.774992097 0  393987.6142659165 5988729.699941677 0  405920.1480513444 6013514.651333156 0  392856.2821527076 6034589.119828064 0  393514.9611654527 5968369.338068204 0  339399.8087404341 6032061.482581838 0  323455.6100285493 6013514.651333156 0  374995.9462927963 5965504.865595459 0  354379.8117870975 6037976.901948514 0  338123.9088969378 6017031.529131207 0  367397.3120126425 5982072.559192053 0  351882.5752379905 5991998.990225234 0  376945.425450199 5991232.708824487 0  392265.0061656896 6013300.936254065 0  357029.7426706699 6006608.947964352 0  380093.6207558212 6036880.127749795 0  323455.6100285493 5966529.009870751 0  405920.1480513444 6037007.472064359 0  405920.1480513444 5966529.009870751 0  323455.6100285493 6037007.472064359 0  333763.6772813987 6048753.88242996 0  405920.1480513444 5990021.830601954 0  323455.6100285493 5990021.830601954 0  362879.3643765316 5966837.319094267 0  348367.6438548031 5965604.161682394 0  334493.1989038612 5996935.948935225 0  395068.5043068817 6023875.372615605 0  348216.0324377587 6013504.844950221 0  379305.9090074943 6011603.390019651 0  372523.5158233726 6003480.000732267 0  395435.2039568929 5999384.346358113 0  395612.080798495 5954782.59950515 0  333763.6772813987 5954782.59950515 0  395612.080798495 6048753.88242996 0  374995.9462927963 6048753.88242996 0  374995.9462927963 5954782.59950515 0  354379.8117870975 6048753.88242996 0  354379.8117870975 5954782.59950515 0  335074.5981535012 6007206.680367459 0  391925.2695590468 5978591.908877409 0  371969.1707190623 6022560.499995181 0  383872.162544519 5969415.106147043 0  358038.7139835292 5984533.09712744 0  369699.869182786 5973102.2359358 0  369841.9126663716 6041099.453006387 0  343176.7440329155 5994428.220622956 0  362933.5332293962 6024385.235173292 0  330640.1760208776 5984148.625419154 0  348684.7494355051 5983110.856817525 0  399094.9690929834 6007537.420809742 0  345447.6324516311 5974162.84917082 0  332859.7749513451 6039150.972778062 0  344517.044630671 6024057.945416138 0  332973.1214415312 6025037.914505113 0  341428.0126373461 6040493.820728126 0  385874.264691618 5992757.40885039 0  350337.3662538711 6030387.535304286 0  359887.2373602368 6016186.250094838 0  377097.8989316926 6029115.217702097 0  338917.7109078235 5961484.016839475 0  329495.5261590715 5972402.215053552 0  336644.7280634616 5978216.610794215 0  330688.6715098422 5962480.256438018 0  359899.8039476132 6031963.415584587 0  399746.255941904 6030426.523907755 0  385511.6875144855 6030368.508996127 0  387377.735783329 6040763.821024337 0  398832.192399829 5974431.100387635 0  387992.9498994246 5962432.032572681 0  405920.1480513444 5984148.625419153 0  364925.7641745284 6005782.953640081 0  361769.877068089 6041226.651684469 0  398452.9199001931 6040850.732439541 0  398946.6205243983 5962252.502309519 0  362305.5577564609 5975984.89789681 0  356822.8065216601 5998470.186307689 0  386900.7115926162 5984820.732438302 0  329528.0119279922 6032067.230024892 0  331139.6939744562 6013813.572928222 0  398457.5876798834 5982541.698799337 0  405920.1480513444 6019387.856515957 0  398685.5166750694 6017257.578706384 0  348587.9424884976 6042755.309150081 0  369841.9126663716 5960143.732550304 0  380149.979919221 5960143.732550304 0  359533.8454135222 5960172.384722514 0  377147.8814772839 5972649.581024994 0  341756.3455763521 6010124.092444684 0  355615.8176864882 5966311.193813809 0  369144.4338274571 5989807.770003954 0  375185.9047422862 5983510.422041401 0  323455.6100285493 6007641.446150355 0  391856.7960121195 6005888.565703365 0  371978.0245217044 5996361.134308098 0  405920.1480513444 5995895.035784755 0  378877.1880032702 5998073.745937059 0  359056.6617417652 5991643.489540118 0  399278.8743430426 5993436.466134224 0  386116.8775939071 6009922.097099247 0  323455.6100285493 6019387.856515957 0  388994.7833819839 6019826.789191471 0  348897.6207366391 5998116.079250046 0  345456.3301153719 6035064.814295612 0  323455.6100285493 6042880.677247159 0  334124.3013408988 5990072.953472659 0  377097.8989316926 6018059.782440464 0  323455.6100285493 5995895.035784755 0  342871.8474798963 5980154.238874755 0  373596.9793292385 6035659.183886081 0  380149.979919221 6048753.88242996 0  376327.9292813152 6042294.581731233 0  329163.3548105369 6004704.843558955 0  350303.9432136903 6007093.032074522 0  383982.6552804571 6015912.664375832 0  345515.490569988 5988567.439252969 0  379019.812877927 6004678.052169549 0  365541.9137639466 6018750.691894444 0  349225.7781606728 5954782.59950515 0  352493.3399767278 5960815.406895458 0  363683.8130458911 5986976.225872464 0  386666.791301207 5975084.583584332 0  368937.6553346639 5966171.092344863 0  400003.9882214358 5968352.273777306 0  328776.0063842635 5992958.433193355 0  339958.4428758043 5999572.344589042 0  354577.7732363954 6012555.454074449 0  328609.6436549741 6048753.88242996 0  382053.0280278458 5988228.496807038 0  330708.6817934912 5978212.973348036 0  372084.7734679543 5978495.086505585 0  358568.2738174705 5971419.415228934 0  328931.2672829705 5998832.905089681 0  323455.6100285493 6031134.266881558 0  405920.1480513444 5972402.215053552 0  405920.1480513444 6031134.266881558 0  323455.6100285493 5972402.215053552 0  405920.1480513444 5960655.804687951 0  323455.6100285493 5960655.804687951 0  405920.1480513444 6007641.446150355 0  323455.6100285493 5984148.625419153 0  405920.1480513444 6042880.677247159 0  346648.7613474604 5960023.05127712 0  342415.3891593561 5966358.988213831 0  350507.6510228226 5971111.740321856 0  391773.9667214506 5994456.117700323 0  338875.8905424621 6026088.827345025 0  361429.1735454847 6010511.262533597 0  389395.7028803263 6025805.543023561 0  392895.6464692951 6043315.288173481 0  332846.8296575367 6019296.633131165 0  373337.4404588729 6009693.515402478 0  336544.3064612215 6043648.151399015 0  348610.2411382072 6019567.839754772 0  381943.4597763228 6042183.394750732 0  355630.0631288611 6028071.82801846 0  363941.5238882306 6035967.852698964 0  328179.67203552 6022271.326978176 0  401066.2857736665 5998807.415073814 0  344387.1099621175 6029612.545574771 0  393435.2235156003 5960233.556458537 0  400735.9970493424 6022675.638064924 0  393708.5772019727 6029179.837160029 0  400609.0696943338 5987857.851798974 0  361753.6614662939 6001152.171757337 0  400766.1144249197 6048753.88242996 0  353363.0524357285 6002630.165620538 0  343248.328463803 6018790.640008039 0  356419.8105951758 6043365.392189237 0  390234.385899412 6000759.497967276 0  368336.1168551637 6000220.532318851 0  328609.6436549741 5954782.59950515 0  387520.8298169724 6035372.992507171 0  400588.0280660195 6035823.299583429 0  329021.6598427091 6043194.252697862 0  393371.710206733 5983576.325812268 0  393638.9721728675 5973623.513063556 0  371727.9212466564 6017113.044457142 0  364687.2762977295 5959941.212693035 0  374995.9462927962 5960346.83186599 0  369841.9126663716 5954782.59950515 0  400766.1144249197 5954782.59950515 0  338917.7109078234 5954782.59950515 0  369841.9126663716 6048753.88242996 0  359533.8454135222 5954782.59950515 0  390458.0471720704 6048753.88242996 0  338917.7109078234 6048753.88242996 0  390458.0471720704 5954782.59950515 0  359533.8454135222 6048753.88242996 0  380149.979919221 5954782.59950515 0  349225.7781606728 6048753.88242996 0  339867.4956514095 6005339.817053361 0  333737.9460226952 6002130.523287664 0  336955.8140048417 6012008.440073739 0  377097.8989316926 6023232.32559834 0  371748.9790486701 6028016.629988787 0  338146.5171983215 5993298.164761053 0  355016.8390227688 6017610.913088997 0  393953.1528190996 6018968.416019509 0  335185.8133477239 5965142.63403323 0  328616.6041642396 5967263.80307608 0  380314.9487662361 5965460.362415641 0  354622.8993466098 6032976.142863722 0  328521.4725131759 6027215.026914048 0  334465.0783479523 6034070.534389696 0  328123.6212682287 6009699.206425843 0  381889.5169855529 5973936.741901617 0  359122.3484437474 6036790.002992895 0  386341.6533148278 5979963.279841923 0  400798.2159679119 6012477.871311778 0  388538.3765260249 5967461.292146791 0  340833.8784183678 5975728.708105717 0  355307.6239213505 5988552.151815021 0  362181.4274823388 5981261.937800813 0  353784.0322742948 5981044.538811012 0  358045.1698423899 5978741.391518688 0  328423.7350325213 6036912.015930048 0  366897.6876966125 6027277.723668203 0  347355.1745641421 5978532.307510624 0  376820.5060332146 5979033.270735624 0  349378.1778589479 6024378.632814493 0  327189.2282939323 6016451.253924556 0  338433.8773236172 6036753.902881841 0  350141.9760340559 5987605.90026687 0  363794.7083927878 5991713.491814731 0  350325.1285660182 6035273.515460094 0  382355.9358007369 5983507.499638396 0  327107.0747437811 59811
[...]
<PointData  Scalars="f_47234-1"> 
<DataArray  type="Float64"  Name="f_47234-1"  format="ascii">8.3904914619264903e-22  2.8036205511254777e-21  1.4173960479130936e-18  -3.3926231776405265e-20  5.6786455396117527e-10  1.4760942529916943e-14  -5.2630446784550455e-15  -1.8321809755121050e-16  -2.8806489560419957e-04  3.2012596146807375e-18  4.8651425353364799e-09  -1.1263220245706876e-13  9.2024232869762727e-17  1.9131733390818335e-08  8.2628276309048964e-17  2.4128219260785150e-13  -4.3714229223106657e-14  2.0033005474682416e-10  8.0785846960671447e-06  4.4617504599805523e-03  2.1418676572683937e-07  2.0340918500583476e-18  3.7487894813877870e-18  -9.5260217743448714e-12  1.6798168281149586e-15  2.0478118334844351e-05  9.6497859242738633e-11  2.4761977091747918e-06  -2.0396568537121948e-12  5.7648785376198924e-15  2.1226127484776932e-10  2.7105053595776711e-16  2.7487113980011193e-15  3.9545890792362242e-11  -1.8838148758287992e-13  3.2382318879607645e-12  9.0386984114469062e-06  -1.1485300617705923e-07  -1.9952837890781130e-02  -2.5306369346070356e-08  -1.9595612473362793e-05  4.5772991719029399e-12  -4.3812808139874800e-19  -6.0761194892716266e-18  3.2978414624805380e-13  7.8306798353283908e-19  -1.9776920609362779e-20  3.8835531402902325e-10  -1.0942431101741689e-15  2.1106894341914939e-10  -4.6404843746880462e-14  2.7031101529103395e-11  4.4596088214807209e-12  -2.2171743730750086e-08  2.3692390819901497e-06  1.4854362234658172e-01  -7.2285369883573306e-07  1.1598718408262286e-15  6.5030722638365349e-19  1.1841113382127089e-18  2.4150592540288011e-17  -1.0737319633196897e-14  -5.4812111473630510e-18  5.3512709518810458e-16  -1.1198521806896275e-11  -2.9951856816499563e-08  1.0225201969623218e-07  -2.4538401479506670e-09  -1.8318611359870800e-07  3.4493005457761752e-08  1.7669763820460333e-13  -3.9230560053690956e-09  4.0268076518124546e-08  1.9132422542907228e-13  -5.0695030841676848e-10  -8.0432392044318575e-10  3.5784321151669188e-13  1.1516133558509128e-19  -5.2711632691271657e-12  -2.4985631178864760e-14  1.6697880579303876e-16  1.0152513811129662e-02  1.8838245939016935e-11  8.7825002669791312e-06  2.0283012268239706e-10  -2.4846833106422797e-17  -2.3318281599938122e-16  2.7886898616036209e-13  -4.5862385128623709e-18  -4.0726271386441371e-12  -1.9170955449077971e-15  4.6342498252794279e-11  -8.3257409502315947e-16  9.1759278649842342e-11  -5.4859459524265833e-13  -9.3275614609763441e-11  -3.1580975927225911e-02  2.8171108428625614e-14  -2.8368072914820456e-17  -1.6206698665329509e-14  5.9565464141247859e-08  -3.1405878236333424e-05  -9.0388688790284902e-06  -2.6185496789275099e-17  1.9995304087552805e-13  1.2644750620103004e-09  1.4135065847902718e-12  1.3289750955745343e-10  1.6328914318041853e-16  5.8938040687313706e-12  -2.4896964424689201e-12  -2.7440133575536591e-15  -5.1719664955399588e-09  3.0987436382138053e-09  1.9397165889691221e-11  7.8195232503958231e-04  -1.3597836779456692e-04  1.2324576475900190e-14  3.3394920691690933e-07  2.0711020193023035e+00  6.1878905488156678e-10  1.4405241874429040e+00  4.1577555536919432e-06  6.1836792160123750e-09  4.7597828131812777e-06  -4.4262641970656024e-17  8.0659020284761275e-10  7.5854267025610699e-07  -1.4849353867864584e-14  1.1351160037385146e-20  1.6999441130272077e-11  9.8832920933641216e-07  2.1918899673319748e-14  2.7968383945401878e-11  4.9160398976492731e-12  -1.6896882104881229e-16  4.5493949407745646e-15  1.4677998581036360e-12  -8.3569061252388197e-07  3.2167474987225428e-08  2.7120059362908408e-09  3.8520687466752778e-03  1.8022808085255648e-06  -2.8790118087136953e-16  -1.6562387951422482e-14  -6.6278372874667632e-06  5.0470286187779900e-07  3.1611275999514569e-11  8.8192918345954855e-13  -6.5966838589780645e-14  1.3891671456669860e-08  3.1387413622405265e-06  2.8504531935658728e-21  1.5296038350888249e-02  -2.7308385726417604e-16  4.2580416042960281e-06  -1.5605026239838223e-10  9.0670714482624139e-13  -3.1784456080801163e-18  5.9343753848600476e-12  -1.0354446584018470e-15  1.4389023890208302e-17  7.8217792477088649e-16  6.4177091548752328e-21  1.1568191376914486e-11  1.1386623981588923e-15  -8.7159884991108348e-20  -1.3213359108955289e-15  2.6912900888842548e-15  -3.8529872523217007e-13  8.3693411530659986e-05  -2.7972483585584293e-13  4.2481081692827348e-04  6.6368588556947833e-12  -4.9719206936210847e-17  -4.5395509786172740e-14  3.3797078303222541e-03  -1.6515749853306396e-18  5.9534649318451025e-09  8.1292818055809721e-16  4.2572439235869881e-10  -2.9502917812850238e-13  8.3065168577046535e-16  1.0816455756258302e-08  2.5845428748155846e-12  3.5144024177519737e-13  2.9822823099400418e-13  4.3222990516343780e-13  1.8038412546914395e-08  2.0858833853192670e-02  -9.2675489806314518e-20  6.3438113184635355e-05  3.4142669122834596e-10  6.6906678169675168e-16  5.4115149113582063e-05  4.6878971039254012e+00  -6.2315762659578298e-20  2.4903638790659426e-13  2.9292239150444480e-18  9.8427167014424353e-20  -1.3603002607435022e-07  1.8223565492988245e-09  2.0637097968121680e-06  8.2882247764046564e-13  3.1423299461814624e-12  -2.2109289056447805e-14  -1.2129146210840940e-15  -7.1117789528520875e-18  1.3774211661057191e-16  3.9678141409193355e-15  2.1306713920608424e-18  9.5356630684754059e-20  -6.2931922944380827e-16  5.6938127871539088e-17  5.7957172862068741e-14  2.3192852607273363e-17  9.6662271498473214e-09  1.7841074493352031e-10  6.7404647276343603e-12  3.7708642506621009e-08  3.3444432984121063e-10  5.8698560540982304e-10  7.5959076705729994e-07  1.0197386400341263e-09  -7.3942149064354459e-17  -5.6380462715990930e-18  -9.7620903375763743e-11  -2.8779340327613375e-12  -3.8801652900688627e-16  -2.5712845692763889e-16  -1.1237321891781990e-13  -1.5936383513609473e-08  -1.7993857889055389e-13  1.0197498733244148e-06  2.7871106036179601e-10  1.5173582717236086e-09  1.5557678883917956e-12  -2.1793326262965991e-07  3.4992646687511146e-07  -8.3111127100673362e-10  2.8951646266481677e-08  -3.5184868714216236e-19  1.6807913247104936e-09  -2.8759512693021015e-11  -3.5343534660701406e-06  1.0824147174197072e-09  -1.3023892804150643e-15  -3.8758264066242299e-17  -1.1014899011629521e-08  -1.5140340600029704e-04  -2.2386442229607453e-13  3.0432816095196755e-04  8.0308566671167186e-16  -3.8282254952154118e-13  -3.4689392728409204e-14  3.6855123594925793e-02  -2.0815654975976269e-09  2.3936156910140571e-09  7.4282254751615790e-07  1.3167071830036612e-16  -4.7151806713936073e-15  3.8974531155701724e-12  -5.2901402240431951e-16  -2.8108533829626035e-15  8.2474652894484167e-08  8.9335368389193117e-05  -5.0742841539979030e-16  8.7147166164826609e-03  -8.5378200562050411e-13  1.6357570463430930e-07  1.5706386776531743e-04  7.9184863609632727e-01  5.6565463909485715e-08  3.8259509061409822e-13  8.4288007446965008e-09  5.8975802036014576e-10  -2.5681491252646282e-08  -1.1587673417253789e-08  3.0596361578959953e-06  -3.6175427583689777e-11  1.5312759727158804e-09  -1.2279402196785328e-10  3.7677255835474739e-06  1.1713000212309258e-04  7.7475665713544849e-05  -2.6138614990846482e-16  1.4528011717512208e-08  6.7381909667363378e-18  -5.5033004387042583e-14  3.3172711775792420e-08  -3.6277062074781270e-11  -7.0862963535067680e-10  1.0190778822375180e-17  9.0941304399376568e-10  8.3151486938368353e-11  3.9376572185841566e-03  5.4360253833661703e-13  1.5526408804049107e-18  -3.5825460855163556e-16  8.6801607824291005e-05  3.6029612427627353e-13  1.0786826308599463e-12  9.8245241449707312e-17  1.4357459747393544e-10  -9.2153739757899400e-19  -3.5402892845410619e-18  -8.9196975057551148e-19  1.5065612650501987e+00  7.3397279122647714e-17  -3.6574990175324446e-04  1.2912395373205702e-15  -7.4903490312455243e-19  1.5739896475838343e-14  3.9845837539963242e-11  1.5127006770324092e-11  -5.0291706841919193e-14  8.2079658296417960e-09  1.0370057054138035e-11  4.6473476505920374e-14  -9.7761678950162790e-15  7.5586446232477064e-12  -1.6471079098117660e-06  1.2614831493650033e-04  2.5078489898972744e-03  -1.0338609894664707e-15  2.3286334547737330e-10  -3.5684932406460464e-13  -1.6192644118307782e-19  -1.2574476328679296e-18  -2.4490908370072245e-11  3.4639513119651772e-11  5.9302590080640533e-11  3.8556348844003792e-11  -2.5672682667666588e-14  1.6708547573253203e-14  -5.6061221965900890e-16  1.0155792633684367e-01  7.0941717638293819e-09  7.5645590776038936e-12  1.0119151119561380e-07  3.4517240740213556e-03  1.0739703059588792e-02  -4.7076786575362232e-03  4.5676842464156223e-02  1.1473515972929809e-15  1.0891412003119506e-06  4.7905847102470814e-10  -4.7241114383713101e-12  1.7816810717438701e-10  1.0342876368545448e-09  -3.6702729655905001e-22  -9.7283702838781548e-20  -1.3935435684513807e-07  -2.9102174913741668e-13  5.0112581051388053e-12  -3.9935400812527116e-07  2.4679044193836213e-16  1.7131821363407932e-08  -1.6220617407086760e-15  -3.5482289865976023e-11  -2.5190525499370621e-08  -1.9458975136443476e-15  -3.3216484097411741e-18  9.2312948982739632e-03  9.1267875059966985e-07  3.8882582630955584e-12  8.6210470036120621e-12  2.4144976732762343e-11  -1.5931799498534589e-19  1.1867138942412737e-18  -7.9201484315431973e-16  -4.2014618257124204e-03  1.1888309059893646e-09  7.5039022861636155e-15  -1.3330343443494890e-13  3.6879269542854300e-12  4.7037954691676151e-11  3.0618309119447814e-13  -9.0535265981746105e-14  1.1262896250526288e-06  2.0074811974213126e-06  1.1780631462946776e-10  -1.3386992580487407e-16  -1.0554987522306867e-11  3.3750971842764277e-09  1.1300101263471579e-15  3.5218164009391837e-11  -1.2103639420810678e-05  -3.0898594901703846e-09  8.2289865279213821e-11  4.4327831326856458e-13  1.7210344778033705e-13  -1.8013260427146831e-18  -8.0314745138027890e-13  -2.8305025981573603e-05  -1.6354423289132345e-10  -1.6998490073015351e-12  3.1681399060103616e-10  -1.4262006280305482e-11  3.4409811530597597e-11  7.1889549881418452e-09  7.7410566800902432e-10  -1.1378657296397188e-15  3.2406924493664744e-12  1.0718245055290465e-06  -3.1366839729542553e-08  1.2830991064160449e-08  2.0083038373515807e-06  -2.8017488785573742e-06  1.5629036074133623e-08  -1.0759256977269845e-09  2.0585662106451523e-13  2.1536886173592947e-13  9.0237798539610247e-05  1.1867500829589693e-17  2.5126104726805375e-04  3.7157043096072742e+00  -1.1682100481562088e-17  2.6030816603799949e-15  -8.0693103032795617e-08  4.6705723634876734e-10  -2.1901105030883539e-05  -2.5726415202710176e-14  -9.1646638255870394e-17  8.3027326682607145e-17  7.9410179208357248e-17  1.6424251917558017e-15  1.6029118680168205e-09  -8.6011499242394881e-10  4.1063879209183904e-11  8.1497243813090619e-11  -1.5380917690844872e-16  5.2607761579962983e-06  3.7083322224705818e-06  -7.2390535768051226e-06  8.3222566586719584e-10  4.0660638146966305e-12  -1.4775973574915041e-10  -6.3668834360054291e-06  -4.2591525920262881e-07  1.3472325429742289e-04  2.8541574168754916e-09  1.3111551055935288e-09  3.7104423335857071e+00  -5.0448963497864272e-17  -1.2014235130152324e-10  -1.3681098849879523e-10  -3.3369898341711052e-08  8.8068422451932300e-13  5.0171282148104553e-11  -6.3615553462678013e-16  -2.4128132337122542e-02  4.1636324746472958e-08  4.7334865430001615e-13  2.7062547034233579e-07  -6.5392826534183943e-11  1.5171636448150864e-15  -7.0101295653432958e-09  1.7131225704245052e-11  -6.1759427000884674e-06  3.9802034984475723e-13  2.8201547052965473e-14  2.1750655800430926e-12  3.1240562599935734e-10  -1.6726983375671415e-17  1.1613838745302030e-11  1.1558830715834231e-15  5.3952525924700387e-08  2.0210056911389436e-09  6.2462473816390741e-07  1.1276721013567868e-13  -6.9155702141733816e-09  8.7451562460482123e-10  -1.9909287121621574e-17  9.6163354198963213e-02  1.5454492275413808e-13  3.2380506687436095e-10  3.8710994337435673e-12  9.2040105436860544e-08  9.1733072861248081e-07  3.6139221122395713e-16  -6.4174557830115242e-10  5.1690955222646495e-02  2.1885190429147185e-12  1.4778855377075727e-09  2.3496287421201148e-11  -1.4664734407829963e-12  -9.0250765206165202e-15  -3.7826741994407989e-12  -1.2280364385937933e-05  4.6364250207806732e+00  5.3224219594214826e-11  3.1498860910296391e-10  1.1945240607415159e-19  2.0759649907815860e-10  -8.4325614027327824e-09  -6.6370712868940490e-07  -7.9468460964608387e-14  -1.2243335196679720e-13  -8.1039474301284762e-15  2.4633865385064557e-08  -5.7192727760576769e-17  -4.9117305917963442e-17  3.6413101002075700e-18  -1.9295466954442109e-15  3.3912500102699337e-07  5.2989057588110539e-07  8.0167006959592594e-07  -1.4044168144199935e-14  -1.1501996131231842e-07  3.1375561445577821e-12  -1.1597016737312660e-08  -1.9621595511115220e-14  -2.1344213040302241e-05  -4.2101565831918692e-07  1.4924996702896777e-08  8.3505503948506773e-11  -4.8944338794567908e-10  4.7299306252660558e-09  1.5363146258677334e-02  7.1582286476809791e-03  -3.7925292877504049e-05  -8.5128196705351893e-08  -3.1663502519516070e-15  -5.4593311468265720e-05  -6.7586597055790490e-17  8.9356871372477134e-14  3.4619914525384928e-13  8.4405103826229462e-16  -1.4887557598423851e-14  -1.6761790336521251e-13  -8.8684949165513186e-20  3.5029436110003165e-08  8.6840627563552057e-16  -4.9757362247204662e-19  1.4847172904796507e-16  9.1772662479199259e-14  -6.7981751022527266e-14  -1.8413682068288978e-09  2.0971363977626881e-21  1.4498794119497183e-20  1.6611688545526308e-15  1.2937301602987358e-21  -8.3629579863907561e-07  -1.3806906223555654e-06  3.7551204593776125e-05  -1.0404372266040270e-04  5.9637698490525277e-13  1.2020753863257615e-04  -1.3746399735199810e-17  1.1525576673808770e-07  4.9174892203010897e-12  -5.5862461344089997e-11  1.7571327430155681e-10  -1.7300270112554881e-11  3.0588859273915787e-07  -1.0248695897512756e-18  -2.0155445758863044e-18  2.1922403914899508e-16  2.8370700469125667e-17  1.7233834604481604e-14  -8.5347508047954750e-13  -3.7289032932462501e-08  -2.7232308364796541e-11  -2.6090675828294488e-17  -1.7123832100238446e-08  4.9011717482267354e-09  1.4164635320372457e-09  9.0576755301154108e-05  3.4308056653530564e-10  -6.0741962816876163e-17  -5.4456067335581835e-15  1.3614025042045560e-14  -1.7102158897536108e-13  -3.7254347145939135e-13  -2.7035577814542097e-14  -1.9678135721879144e-16  6.1971270880834628e-13  1.0063057091017777e-11  -6.1365991990300868e-13  -1.0168948744230442e-15  1.1663520636889464e+00  9.3246032516904651e-02  -2.9647577924902544e-09  2.9637786564750634e-18  1.2419087002807522e-15  -6.7475229727166215e-15  2.5438379226333955e-15  -1.0926140534162935e-19  -4.3577760675889588e-14  -3.2966128346898348e-19  2.0724881120537820e-02  3.3124944648524550e-02  -8.7585947920371477e-13  -3.2619154607690357e-13  1.1717517029626385e-11  -1.1572523775774342e-16  -6.5540072898060976e-17  -4.2391073096220312e-13  -6.8165621255433452e-07  2.8706633858309541e-07  3.0743678204402659e-05  4.3937146147175184e-10  1.9130381030793443e-05  3.7773189317812802e-03  3.1470647737008958e-02  8.7506547627873984e-11  1.7802765592064995e-11  -1.1008199056797608e-12  4.0762440055467245e-12  1.4000348295864268e-14  -2.3258685600948274e-16  5.0257382331034067e-12  -3.7472911055948642e-16  -1.6332941051977281e-17  1.4749621379274859e-11  4.1255923178875221e-14  2.2144910699712697e-14  -7.8624281604535295e-20  -2.7879851737552755e-19  1.2614476337747031e-10  -9.9886522318538749e-17  3.7146086111160949e-10  7.0022163924515889e-13  -2.6022399745736724e-12  1.1157514667999326e-13  6.4490356579119556e-07  -1.2603270606531953e-10  3.8277293097031522e-09  -3.5835230692999596e-12  -2.7487595285252313e-16  -1.0311501997278714e-16  -2.6321009382335773e-16  -1.8153839286602491e-19  -1.9182706955452898e-17  8.1864410161818381e-19  -4.3274521642621743e-11  6.3029468115805820e-10  4.7406080584993464e-13  -3.8286270865082311e-13  -3.0530708797622988e-09  -1.1179603397369053e-07  8.5363517641612178e-11  2.8498650604050844e-11  1.0534476565289583e-09  -1.4329442912681877e-09  1.5565661630442671e-11  -5.9996651392974720e-15  -7.0276861886199280e-18  -1.7018194445924745e-13  -1.4824991910535604e-13  6.6599883076102915e-13  -1.2884214837656917e-14  -1.5480537787433089e-04  9.2532727169573772e-10  7.6379911524032343e-14  -7.3981741532377896e-06  9.7088977320650618e-12  1.7052947034620574e-12  2.1908220763203220e-13  5.4367116052514848e-10  -1.8735162438685463e-04  1.2126819809577285e-20  -2.0750779636517002e-20  1.0729390577031697e-05  3.5577663171256330e-19  -1.7899288211656123e-15  3.2113791006673238e-03  -2.9979535685283224e-02  2.2946898029931242e-03  -3.4891585208601974e-17  -4.1992307614588019e-15  -2.2722385034722084e-02  -9.4182371424408967e-09  -4.0239225494820424e-16  -4.1488265390083538e-02  5.1062663356975765e-14  -9.2480838643769402e-21  -1.9861919670534010e-12  -6.3232458133998347e-17  2.1435367850272327e-16  -6.5280833980378727e-10  -2.7744880553559915e-16  -1.5697642798356167e-11  1.5805563926857938e-16  6.7573545224870139e-03  1.9962465049825519e-09  2.9353429632991691e-02  -8.0805014594212551e-09  2.2495133076326386e-15  2.8263877372086215e-03  8.0309927019212282e-13  1.0046674283691757e-09  -3.6234948343138137e-17  1.9703573744841411e-11  2.4147034176574781e-17  -1.0335225147624971e-17  -9.3429142541464406e-10  -3.2008413820073300e-10  1.0757938057783325e-15  5.0447595076699220e-08  -1.7333771842704381e-07  1.4854059243728985e-06  1.4568626355301577e-04  3.9278330321645981e-15  -2.6966107569080203e-13  -3.3411744463354205e-10  2.6593863049926834e-10  -5.2702812962623663e-05  5.9390609670723886e-13  -1.3288486123245233e-13  5.1149290843792152e-15  1.4724581296509157e-13  -1.0424772738628792e-13  -4.9631114530289317e-15  3.7724221443525619e-16  5.4107671608504164e+00  6.8418022372465062e-04  9.1883275572411950e-05  1.0612296534198844e-05  -1.8876512383424248e-06  1.8910105506460475e-05  -3.9183623173743676e-07  -6.5531835426033285e-11  1.5749911629448018e-10  -1.4909689870208934e-06  2.5182568743424385e-17  -2.7602865088290341e-11  1.5010336277964925e-14  -1.6571661662198343e-08  -2.7834812082376154e-09  -2.5709298634454320e-08  3.1813039801040465e-06  -4.8376102611353198e-18  -1.4309156507254334e-16  1.5784023893678901e-08  -3.3930263879310452e-12  8.3809518530377286e-11  -2.8727099118343390e-16  2.4956633318591204e-13  -9.5467794206402377e-09  3.6496619926309229e-07  3.2684783037795091e-17  -3.4473903418887131e-17  6.8022257178233744e-14  2.9917228038391529e-10  2.5542711490572083e-10  1.4302245082344312e-09  1.7577477448522643e-09  1.7563696912886354e-07  8.7824503826852321e-11  -3.5671823040874715e-06  -2.0532497195812153e-19  6.7728336556099253e-17  5.2418587756272864e-16  4.2402042634019089e-11  3.8038223397390220e-14  -7.8698770883132022e-18  5.2857789599142375e-18  -6.2104105915895787e-19  -1.4378540788850622e-17  2.4796783136131588e-09  -9.5544433527770706e-11  1.0578205814963665e-11  1.3469480656828204e-07  1.9673777984918808e-07  1.1336536602419727e-07  4.6175667017299101e-13  1.2382873663291518e-08  4.4265192086442792e-13  4.0114004711592642e-06  1.1129653852942570e-16  1.0224646485871124e-13  2.5546886907713060e-14  2.3035230687443299e-12  2.6116759617552395e-12  4.1142907817985809e-13  8.0684127300463913e-12  -6.9716252602078796e-12  -6.1612916364478021e-12  -8.6094339799016852e-12  -4.0073635369363516e-10  3.2879559576934009e-18  -2.6579323067883841e-21  2.2370683426573733e-14  3.9754562868171624e-14  8.0769647554180744e-19  8.4086225551410189e-17  -7.5456048005198138e-18  3.8928171689624947e-16  1.6544767295422484e-14  -1.5285099472327999e-15  -4.5830946635694363e-15  2.6076929189832778e-16  -4.9097615153977122e-15  -7.1890409332498222e-20  1.1374558867106478e-17  -3.0888212366515780e-19  1.3644614994748646e-19  3.8006726856993188e-17  1.5554434236671106e+00  5.5272834019645385e-07  8.5060885241564694e-08  1.1076231439890779e-08  5.6773977647983238e-17  1.3163439961787709e-15  1.5317307786133202e-15  1.4801451797920021e-19  1.5509933749853134e-05  3.9925846020123460e-11  -2.0902184724548769e-16  5.1720309328993395e-05  1.2442165241259851e-17  2.9580426656794649e-08  -1.7771895411357049e-12  1.37841407769