<?xml version="1.0"?>
<VTKFile type="UnstructuredGrid"  version="0.1"  >
<UnstructuredGrid>
<Piece  NumberOfPoints="3002" NumberOfCells="5870">
<Points>
<DataArray  type="Float64"  NumberOfComponents="3"  format="ascii">323455.6100285493 6048753.88242996 0  323455.6100285493 5954782.59950515 0  405920.1480513444 5954782.59950515 0  405920.1480513444 6048753.88242996 0  405920.1480513444 6001768.240967555 0  323455.6100285493 6001768.240967555 0  364687.8790399469 5954782.59950515 0  364687.8790399469 6048753.88242996 0  364687.8790399469 5996367.117560402 0  323455.6100285493 6025261.061698757 0  382226.6271443229 6022560.499995181 0  405920.1480513444 5978275.420236353 0  323455.6100285493 5978275.420236353 0  353897.8957397301 6022560.499995181 0  344071.7445342481 5954782.59950515 0  385304.0135456456 5954782.59950515 0  405920.1480513444 6025261.061698757 0  354379.8117870975 5975574.858532775 0  381582.8168806895 5978840.396198289 0  384950.2598624413 6001768.240967555 0  344643.0480768835 6003429.02033719 0  344071.7445342481 6048753.88242996 0  385304.0135456456 6048753.88242996 0  339717.0321562298 5986078.187627405 0  337515.036058786 5969821.016310448 0  368062.2614420265 6013076.224998265 0  368062.2614420265 6032044.774992097 0  393987.6142659165 5988729.699941677 0  405920.1480513444 6013514.651333156 0  392856.2821527076 6034589.119828064 0  393514.9611654527 5968369.338068204 0  339399.8087404341 6032061.482581838 0  323455.6100285493 6013514.651333156 0  374995.9462927963 5965504.865595459 0  354379.8117870975 6037976.901948514 0  338123.9088969378 6017031.529131207 0  367397.3120126425 5982072.559192053 0  351882.5752379905 5991998.990225234 0  376945.425450199 5991232.708824487 0  392265.0061656896 6013300.936254065 0  357029.7426706699 6006608.947964352 0  380093.6207558212 6036880.127749795 0  323455.6100285493 5966529.009870751 0  405920.1480513444 6037007.472064359 0  405920.1480513444 5966529.009870751 0  323455.6100285493 6037007.472064359 0  333763.6772813987 6048753.88242996 0  405920.1480513444 5990021.830601954 0  323455.6100285493 5990021.830601954 0  362879.3643765316 5966837.319094267 0  348367.6438548031 5965604.161682394 0  334493.1989038612 5996935.948935225 0  395068.5043068817 6023875.372615605 0  348216.0324377587 6013504.844950221 0  379305.9090074943 6011603.390019651 0  372523.5158233726 6003480.000732267 0  395435.2039568929 5999384.346358113 0  395612.080798495 5954782.59950515 0  333763.6772813987 5954782.59950515 0  395612.080798495 6048753.88242996 0  374995.9462927963 6048753.88242996 0  374995.9462927963 5954782.59950515 0  354379.8117870975 6048753.88242996 0  354379.8117870975 5954782.59950515 0  335074.5981535012 6007206.680367459 0  391925.2695590468 5978591.908877409 0  371969.1707190623 6022560.499995181 0  383872.162544519 5969415.106147043 0  358038.7139835292 5984533.09712744 0  369699.869182786 5973102.2359358 0  369841.9126663716 6041099.453006387 0  343176.7440329155 5994428.220622956 0  362933.5332293962 6024385.235173292 0  330640.1760208776 5984148.625419154 0  348684.7494355051 5983110.856817525 0  399094.9690929834 6007537.420809742 0  345447.6324516311 5974162.84917082 0  332859.7749513451 6039150.972778062 0  344517.044630671 6024057.945416138 0  332973.1214415312 6025037.914505113 0  341428.0126373461 6040493.820728126 0  385874.264691618 5992757.40885039 0  350337.3662538711 6030387.535304286 0  359887.2373602368 6016186.250094838 0  377097.8989316926 6029115.217702097 0  338917.7109078235 5961484.016839475 0  329495.5261590715 5972402.215053552 0  336644.7280634616 5978216.610794215 0  330688.6715098422 5962480.256438018 0  359899.8039476132 6031963.415584587 0  399746.255941904 6030426.523907755 0  385511.6875144855 6030368.508996127 0  387377.735783329 6040763.821024337 0  398832.192399829 5974431.100387635 0  387992.9498994246 5962432.032572681 0  405920.1480513444 5984148.625419153 0  364925.7641745284 6005782.953640081 0  361769.877068089 6041226.651684469 0  398452.9199001931 6040850.732439541 0  398946.6205243983 5962252.502309519 0  362305.5577564609 5975984.89789681 0  356822.8065216601 5998470.186307689 0  386900.7115926162 5984820.732438302 0  329528.0119279922 6032067.230024892 0  331139.6939744562 6013813.572928222 0  398457.5876798834 5982541.698799337 0  405920.1480513444 6019387.856515957 0  398685.5166750694 6017257.578706384 0  348587.9424884976 6042755.309150081 0  369841.9126663716 5960143.732550304 0  380149.979919221 5960143.732550304 0  359533.8454135222 5960172.384722514 0  377147.8814772839 5972649.581024994 0  341756.3455763521 6010124.092444684 0  355615.8176864882 5966311.193813809 0  369144.4338274571 5989807.770003954 0  375185.9047422862 5983510.422041401 0  323455.6100285493 6007641.446150355 0  391856.7960121195 6005888.565703365 0  371978.0245217044 5996361.134308098 0  405920.1480513444 5995895.035784755 0  378877.1880032702 5998073.745937059 0  359056.6617417652 5991643.489540118 0  399278.8743430426 5993436.466134224 0  386116.8775939071 6009922.097099247 0  323455.6100285493 6019387.856515957 0  388994.7833819839 6019826.789191471 0  348897.6207366391 5998116.079250046 0  345456.3301153719 6035064.814295612 0  323455.6100285493 6042880.677247159 0  334124.3013408988 5990072.953472659 0  377097.8989316926 6018059.782440464 0  323455.6100285493 5995895.035784755 0  342871.8474798963 5980154.238874755 0  373596.9793292385 6035659.183886081 0  380149.979919221 6048753.88242996 0  376327.9292813152 6042294.581731233 0  329163.3548105369 6004704.843558955 0  350303.9432136903 6007093.032074522 0  383982.6552804571 6015912.664375832 0  345515.490569988 5988567.439252969 0  379019.812877927 6004678.052169549 0  365541.9137639466 6018750.691894444 0  349225.7781606728 5954782.59950515 0  352493.3399767278 5960815.406895458 0  363683.8130458911 5986976.225872464 0  386666.791301207 5975084.583584332 0  368937.6553346639 5966171.092344863 0  400003.9882214358 5968352.273777306 0  328776.0063842635 5992958.433193355 0  339958.4428758043 5999572.344589042 0  354577.7732363954 6012555.454074449 0  328609.6436549741 6048753.88242996 0  382053.0280278458 5988228.496807038 0  330708.6817934912 5978212.973348036 0  372084.7734679543 5978495.086505585 0  358568.2738174705 5971419.415228934 0  328931.2672829705 5998832.905089681 0  323455.6100285493 6031134.266881558 0  405920.1480513444 5972402.215053552 0  405920.1480513444 6031134.266881558 0  323455.6100285493 5972402.215053552 0  405920.1480513444 5960655.804687951 0  323455.6100285493 5960655.804687951 0  405920.1480513444 6007641.446150355 0  323455.6100285493 5984148.625419153 0  405920.1480513444 6042880.677247159 0  346648.7613474604 5960023.05127712 0  342415.3891593561 5966358.988213831 0  350507.6510228226 5971111.740321856 0  391773.9667214506 5994456.117700323 0  338875.8905424621 6026088.827345025 0  361429.1735454847 6010511.262533597 0  389395.7028803263 6025805.543023561 0  392895.6464692951 6043315.288173481 0  332846.8296575367 6019296.633131165 0  373337.4404588729 6009693.515402478 0  336544.3064612215 6043648.151399015 0  348610.2411382072 6019567.839754772 0  381943.4597763228 6042183.394750732 0  355630.0631288611 6028071.82801846 0  363941.5238882306 6035967.852698964 0  328179.67203552 6022271.326978176 0  401066.2857736665 5998807.415073814 0  344387.1099621175 6029612.545574771 0  393435.2235156003 5960233.556458537 0  400735.9970493424 6022675.638064924 0  393708.5772019727 6029179.837160029 0  400609.0696943338 5987857.851798974 0  361753.6614662939 6001152.171757337 0  400766.1144249197 6048753.88242996 0  353363.0524357285 6002630.165620538 0  343248.328463803 6018790.640008039 0  356419.8105951758 6043365.392189237 0  390234.385899412 6000759.497967276 0  368336.1168551637 6000220.532318851 0  328609.6436549741 5954782.59950515 0  387520.8298169724 6035372.992507171 0  400588.0280660195 6035823.299583429 0  329021.6598427091 6043194.252697862 0  393371.710206733 5983576.325812268 0  393638.9721728675 5973623.513063556 0  371727.9212466564 6017113.044457142 0  364687.2762977295 5959941.212693035 0  374995.9462927962 5960346.83186599 0  369841.9126663716 5954782.59950515 0  400766.1144249197 5954782.59950515 0  338917.7109078234 5954782.59950515 0  369841.9126663716 6048753.88242996 0  359533.8454135222 5954782.59950515 0  390458.0471720704 6048753.88242996 0  338917.7109078234 6048753.88242996 0  390458.0471720704 5954782.59950515 0  359533.8454135222 6048753.88242996 0  380149.979919221 5954782.59950515 0  349225.7781606728 6048753.88242996 0  339867.4956514095 6005339.817053361 0  333737.9460226952 6002130.523287664 0  336955.8140048417 6012008.440073739 0  377097.8989316926 6023232.32559834 0  371748.9790486701 6028016.629988787 0  338146.5171983215 5993298.164761053 0  355016.8390227688 6017610.913088997 0  393953.1528190996 6018968.416019509 0  335185.8133477239 5965142.63403323 0  328616.6041642396 5967263.80307608 0  380314.9487662361 5965460.362415641 0  354622.8993466098 6032976.142863722 0  328521.4725131759 6027215.026914048 0  334465.0783479523 6034070.534389696 0  328123.6212682287 6009699.206425843 0  381889.5169855529 5973936.741901617 0  359122.3484437474 6036790.002992895 0  386341.6533148278 5979963.279841923 0  400798.2159679119 6012477.871311778 0  388538.3765260249 5967461.292146791 0  340833.8784183678 5975728.708105717 0  355307.6239213505 5988552.151815021 0  362181.4274823388 5981261.937800813 0  353784.0322742948 5981044.538811012 0  358045.1698423899 5978741.391518688 0  328423.7350325213 6036912.015930048 0  366897.6876966125 6027277.723668203 0  347355.1745641421 5978532.307510624 0  376820.5060332146 5979033.270735624 0  349378.1778589479 6024378.632814493 0  327189.2282939323 6016451.253924556 0  338433.8773236172 6036753.902881841 0  350141.9760340559 5987605.90026687 0  363794.7083927878 5991713.491814731 0  350325.1285660182 6035273.515460094 0  382355.9358007369 5983507.499638396 0  327107.0747437811 59811
[...]
<PointData  Scalars="f_78871-1"> 
<DataArray  type="Float64"  Name="f_78871-1"  format="ascii">-1.4542227964363522e-23  3.8914227234746591e-23  1.4773081895093222e-17  -2.6609882380238043e-21  1.1655394389219239e-11  2.0982784861812429e-16  2.8656698935926858e-16  -1.4232863814911710e-17  4.1099619295199875e-03  -6.6531375134474043e-18  4.0389178456629069e-11  1.6423150347376826e-12  2.2466832522686236e-18  4.4937590427123249e-10  -5.0147484611665368e-19  7.2191836954253136e-15  8.8303829917007214e-16  -1.1149176857407160e-11  8.8197001082344725e-07  7.2868939229886595e-05  1.1242936889717559e-09  -1.8284961736064028e-18  6.3764247758905201e-19  2.8360188759340477e-12  -5.6938024941213757e-17  -1.3425811781348860e-05  1.0261644987519924e-11  3.2713741694715785e-07  3.9046643473154868e-13  -1.0275013327283916e-15  -8.2015977491685119e-12  -1.9445340302172234e-17  -8.6525116687443478e-17  2.0492897592868602e-11  2.4609404668794513e-13  5.5508360254673797e-14  -3.1473044720625569e-07  1.3681621573612268e-07  1.2026333683247131e-02  4.4047458524440048e-09  7.9000254236699587e-05  -3.8483587362162755e-14  2.1259031252927357e-20  4.8548223227966306e-19  4.3729631249297392e-14  -1.7749895952389508e-20  6.7081780207877427e-22  -3.5892134843196941e-13  -4.4741660769972380e-17  6.1083334894750949e-12  3.7102521826862461e-16  -3.5545083859782078e-13  -3.0807175093202093e-14  1.3898243874164914e-09  5.9753232745538053e-07  5.8542191069768197e-03  3.2134623592120307e-07  -2.2209059229313673e-16  -3.1060323959947222e-20  1.6985088241010943e-19  6.7719332009131106e-18  -1.8032477866963094e-17  -1.7679371669674366e-18  -2.7110805175424067e-17  6.5490541939418692e-12  -7.2325809481542835e-09  -1.8973553492918998e-09  -1.7771201778411417e-10  9.1570811366621994e-08  7.6449573425273815e-09  4.2407621531674048e-14  3.6626417150307827e-09  3.7963357524783016e-11  6.7603799934779377e-16  2.1950327909084010e-10  1.7122553741532205e-10  6.0320088357347178e-13  6.3705476950472840e-20  2.1732214045896552e-12  1.2548110595889577e-16  -1.2227320049282190e-18  -6.3865030974866134e-04  5.7886978991701114e-12  -1.1264144829924113e-07  6.2507614143330839e-12  3.0237559986350275e-18  2.4569123270257730e-18  -8.9237969880335253e-15  1.6262516366726920e-20  4.1112861659380176e-12  -4.3764438893508655e-17  -8.1162152804997978e-15  -6.7773091925321832e-17  -7.3952769615275283e-12  -3.3341066737719499e-13  2.0290016598198402e-11  -1.3689813392595040e-02  2.0919951009823044e-14  -3.9699254186253074e-18  -1.8523092932555438e-16  -7.4362024954668800e-10  5.6799701050470899e-05  -2.9459040595221560e-06  1.1122031902607937e-19  -3.6001212641484755e-15  1.0593292206656383e-10  3.3677339535160285e-14  1.4404411543392013e-11  -2.0390022865110675e-16  3.6871516897871331e-14  -2.3504128180267357e-14  2.2418002623035084e-15  8.0327360123405852e-09  -5.3053332959283138e-11  1.2222696885240704e-13  -1.6555075203409471e-04  1.8186524751909509e-05  4.7167525538007927e-16  9.5945982636766129e-08  8.3355478770583125e-01  5.3598604060178808e-11  -1.6540001082743106e-03  -4.9332786956400098e-06  1.4572694514222260e-08  -8.6317524676787715e-08  8.2846987914280633e-18  2.2267057887843016e-11  -3.2165001302697429e-08  1.1070960333848216e-15  -3.6414932694689628e-22  -2.6954287001043896e-14  3.2898266549271167e-08  -1.0126128754623693e-16  -2.3614802701709333e-13  -4.4754431142980183e-14  -1.0693866845853301e-17  7.9288019133303732e-16  -1.0053659380743990e-14  9.4766641844179570e-08  1.0671143146444227e-09  -9.2798532028996078e-11  -2.1119519967701463e-06  -4.5743992055020971e-08  2.5803924374184279e-18  2.7701468035077129e-17  1.2366489400043087e-05  3.6327250055890945e-08  2.0350035430948701e-11  2.2342421864594789e-13  8.0061149609250965e-15  1.4727661693319158e-10  4.3533724908162624e-07  -1.3414779134307045e-22  5.6247485408315748e-04  5.3512551979970968e-17  -9.6223727211681320e-08  4.0912541369503031e-11  5.4782824915805442e-15  -7.8303162831073690e-21  3.7890516709611359e-13  2.0973877642344407e-17  -1.3982301516413818e-19  -1.1764029261909031e-17  -2.8318731356888957e-21  1.6181352316860418e-12  4.4545863908280987e-17  -1.0144110921925454e-20  -1.5940355834484985e-17  3.5701247865834531e-16  -9.2542255816591279e-14  7.1709540654059068e-06  4.3203662849555193e-14  9.3595280903387801e-06  2.6466180802225959e-13  -5.2399198515295510e-18  1.1079730312795933e-15  -1.3203268351233946e-06  1.9445592657419173e-20  2.7295921835838635e-10  -4.5411296516275865e-17  3.9525561619763653e-11  6.9612625344883633e-14  1.0976543441954831e-16  2.0487679211705834e-10  7.0215509235079095e-15  1.5352476121953639e-13  1.1897553515373175e-14  -3.0371110749646825e-17  -1.2622500658313344e-10  9.1158533843929534e-03  -1.3074057840491673e-20  4.4495986749227744e-06  -7.0540149539817060e-12  -1.4715788478965480e-16  -1.4279683582993229e-07  1.9326807785508862e+00  3.6583891025868510e-21  -1.8522751041646037e-15  1.1553798010176836e-18  -2.7130428343912965e-21  -1.0048356846717027e-09  4.4582652908295061e-10  -5.0585975526479677e-08  1.4502993883860605e-14  6.7944089234477041e-14  2.3674504280484569e-16  5.7660232701268139e-17  -2.2916431359710618e-19  7.1708813830157330e-17  -4.1010789000932253e-17  -2.9892661529777031e-19  5.5282668025823212e-20  -1.3195120219144429e-16  2.6829370161350372e-18  -2.6990995843061747e-16  -1.1041615345379370e-17  -1.8015135647062374e-10  -1.2524445158907127e-12  7.1953695720891862e-12  -3.0210440235707414e-10  2.3812342393730683e-11  -5.0677691289194279e-12  2.6548134503508926e-09  7.1379914816368091e-13  3.7103231576214768e-18  -9.6518941289201035e-19  6.2512701441297084e-12  3.6022750045861266e-12  7.8034662075763594e-18  1.1701724745745188e-17  1.3921566855102869e-14  -2.0602780193526233e-09  1.7785570414331672e-13  -1.9803903704907076e-07  7.8753645072953314e-12  3.6092772613548197e-11  -4.5494118141017118e-15  1.5381440724779176e-07  -7.6399179127875699e-09  9.9194730381571079e-10  8.4869707818505117e-10  -8.3041889433788808e-21  1.6690420805104424e-10  1.0372593776574303e-11  -1.0146690954324323e-08  2.5506635708221737e-11  2.3097827070041015e-16  6.9499587243782174e-18  1.0357188857337199e-08  4.0801965751023143e-05  2.5808048533189837e-14  4.1356226771445536e-05  4.8060513487608060e-18  1.8134258216725920e-13  -1.4737164270518973e-15  1.0245960965630685e-02  4.9700312032072427e-10  8.5093899424338002e-11  3.0272534629091912e-08  3.6402212601140513e-16  -5.8648347733405974e-16  8.5777924508002188e-13  -1.5924576403376273e-17  -3.1317285275181086e-16  3.8045793790750341e-10  2.7416254353808152e-07  2.8510208958822759e-17  4.7653052284408716e-04  2.9774592341554986e-13  -5.3097971178803923e-09  -9.7579848207110507e-07  -1.8049099128018106e-02  4.3763462239181558e-09  3.3129913430312980e-14  3.5331363618402932e-09  4.5185293266867974e-10  8.5608805978678556e-09  4.7810638823081606e-09  -1.5339665402412034e-06  5.2658429092889186e-12  -6.2687716110667103e-11  1.5344915754626449e-10  1.8283727192664151e-07  -6.3708688148276816e-06  1.1277304847982992e-04  -2.5012095189334198e-17  7.2946655029643920e-10  -4.2581985374296241e-19  2.4634880770021739e-14  2.6059334945747174e-09  1.5140287399102467e-11  3.7862701189831280e-10  -1.3782010864186529e-18  5.0023255189729427e-12  -5.3948913339632494e-13  9.7134748281100278e-04  3.3612214920515199e-15  -4.7326543081553883e-20  -8.1049165133219386e-19  2.7978527281755149e-06  -3.4850090312114395e-15  -1.0999877021014538e-13  6.6117399737645651e-19  1.2044548092598937e-11  -1.7683198668980619e-19  -1.8410576005459748e-19  -7.0918544612318994e-20  -2.6630610909907748e-03  1.1875112069848195e-16  5.9057290016383603e-05  -1.1669879619839580e-16  4.2924349443465699e-20  -6.0444628078972064e-16  2.6057126753725331e-12  5.7851375220532548e-13  2.2432310988425933e-14  5.1369913126165800e-10  -2.7805430213535097e-13  1.0386100293853305e-14  1.9437387337557436e-15  4.7025733069218535e-13  2.2554673981486648e-06  1.9822083950182286e-04  4.3314168625008395e-04  1.3212865082622110e-16  -1.0208874523427958e-11  -2.2005809035953332e-14  2.9707462730095420e-21  -1.6185089511436892e-19  1.8954661249999168e-12  1.9538291899107718e-12  6.4204461341211408e-12  2.7666942122732869e-12  2.8658714608930170e-16  -3.5287216157089428e-16  6.5004004774855920e-17  9.7799155744533696e-04  -3.6407827156289895e-11  3.5482982924918264e-13  1.1890440937761299e-08  -3.5616141827208431e-04  6.0392649907372370e-03  7.6249600846944971e-03  -6.4455999707710378e-04  3.3138572415759908e-16  -1.2269750615716361e-07  8.2029792408847675e-12  9.5119926022972102e-13  -3.5429222989829618e-13  2.1180727687541196e-10  -5.9549061843957023e-24  2.5642950698524703e-21  7.1912973737125921e-08  1.2129982403106593e-13  -1.0282602206460171e-13  4.9155410725084056e-08  -1.5705962900685989e-15  3.1725542119275166e-09  7.3980379099479891e-17  1.5432455563986280e-09  6.7800864389348120e-09  3.8480712924990560e-17  5.8577235136704161e-20  -1.3595495566549500e-05  -1.4958434562399596e-08  -3.3827303231827838e-13  1.4068710002477159e-13  -4.7384090546144161e-14  8.8702267198538865e-22  -8.9498973233518806e-18  -6.1774955631454284e-18  -7.8094835348581744e-05  4.1573770506000851e-10  -4.9364744189789068e-16  -2.4568835856931271e-15  3.6445734481729162e-13  1.0011811615663031e-13  2.2546271808892831e-15  1.4133010830929326e-15  9.0203428399444639e-08  1.2460509445329200e-07  1.2895652986064877e-12  1.3902834450329105e-18  4.6946393208567683e-14  6.3479154149837254e-11  -4.9387141595597821e-17  1.5113722269152389e-12  1.5052466322274832e-05  2.0451490497645788e-10  -2.5214059484434017e-13  2.9948596443032721e-15  -2.0965848746608089e-16  -8.2981832623538581e-20  -3.8237449453715610e-14  1.8491369624278104e-05  1.2326814372076196e-10  5.1760051366525103e-13  6.8482654461443428e-11  6.0884306759422118e-12  -1.7728373995086993e-13  -1.1967495414102999e-10  1.1785138393683606e-11  1.3030043139054882e-16  -5.4613322279552301e-14  1.2428822415285520e-08  1.7611971470615186e-09  9.5200120108049929e-09  8.3255605437571660e-08  9.7115932807257100e-07  -8.4291722977792236e-11  3.8215857231976364e-09  3.9837483098761147e-14  3.6819666595999577e-14  1.4473480291152178e-05  -1.7997863874728432e-19  1.1384490918487486e-05  4.5347919633188543e+00  8.9445294873293430e-19  1.6310939703065489e-15  3.0785821521165282e-07  -7.6741853355071674e-12  2.5056102629307325e-06  2.2433644657670464e-14  -3.9132193668547143e-19  -3.4423701423765115e-18  -3.7665393701471471e-18  9.4649254208641345e-17  1.0476726280938436e-09  -3.8136531216374591e-10  1.5174124513666123e-12  9.3659490605351209e-12  -2.5362972469896311e-17  1.8543256563935905e-07  -1.1464292591049289e-07  -9.5746127740728179e-07  2.0801604346121517e-10  -1.3719691969946529e-14  1.6396207340948715e-10  2.3151910330268207e-06  1.6111462651131191e-07  4.4195462648747266e-06  -6.5486781554154821e-11  -5.3345267942560555e-12  -1.0020900569409580e-02  -1.4318755553569548e-18  4.5093160060658535e-11  1.8276543097263619e-12  7.8037974616941012e-09  3.7792354087485868e-15  -2.6109243307886618e-13  1.4699278174979679e-17  2.3223223066243570e-01  9.7084022411341040e-07  -4.7230585299973882e-14  -5.8138797543358009e-09  -1.0183471433021239e-11  2.0163942443627010e-16  -3.9693567655479452e-10  5.5337244893361606e-13  6.0352897433771880e-07  -2.8543829370978848e-15  -6.2315773461775525e-16  3.9354972142814729e-13  4.7067143197172158e-12  3.5601886265093152e-19  4.8036282070466212e-13  4.6081320636660281e-16  3.6305616837027070e-10  1.1053512933763148e-11  6.0155640351517878e-09  -6.9678455232845265e-16  3.7215672057241559e-09  4.2681349283942940e-12  7.6087194053815589e-19  8.7317731440369237e-02  -2.3561383709861450e-16  1.0325262019892016e-13  9.9200800689110414e-13  -3.8001483857399285e-09  -1.7720121448831014e-08  -2.3523375100026771e-17  4.6001628932632239e-10  -3.4900949059933525e-04  5.6717827356021790e-14  -1.3859091030608266e-11  -2.0514196491179986e-13  4.5998916251175528e-13  4.3617989425176808e-16  -6.6035963457328103e-13  1.2713884902664296e-05  6.1693781293461403e-01  4.2229174186101744e-12  -6.0728582892270253e-12  -4.4870203597024508e-21  1.3647720218102522e-10  3.1562102693517166e-09  2.6222132270569111e-07  5.1724792883839408e-17  2.5710911613579703e-15  4.2552512540891634e-17  -5.3009841431805614e-09  2.0154744435124142e-18  2.7113555346751241e-19  -2.1367573548493778e-19  -4.1567120606723335e-17  -3.3515391838720014e-11  3.0046223024030364e-07  -3.4091535074671123e-09  4.2487925049361162e-16  6.4688565895165014e-08  1.0345574892797732e-13  7.9174571336837447e-10  1.3127505533215379e-14  7.9265409910894217e-06  -7.1135360251276510e-08  2.1286864653316968e-09  1.4060494191587163e-11  2.2712744651506457e-10  -1.4836347192572865e-10  1.7613154859799696e-02  5.1807269823207801e-04  1.6503729720251863e-05  1.6149450556295266e-08  9.7506460816131420e-16  4.8460285840575608e-04  1.5670321958348866e-17  1.1746285327325334e-16  -8.5500224363605474e-16  -2.4259602514998498e-17  -2.4496215999857955e-16  -1.0325236687969013e-15  -1.6643806163384851e-20  2.2733228326501197e-07  -3.0190239468699182e-17  -3.5508080742420688e-19  6.1068514942636369e-18  -5.1809052411732058e-15  -2.4127750014722096e-14  2.2524603883224141e-10  1.8807691655841047e-21  -1.2548449973475606e-21  1.7295325709262477e-16  -3.6381445506375442e-23  1.5811052920112521e-07  5.4996152779066366e-07  1.9075819033323104e-06  -1.7035839138779237e-05  -3.1513861004294733e-15  -2.5096390061765483e-06  2.9416618337105001e-19  -4.6128321263367217e-09  1.0646151911741071e-12  1.7989633831436068e-11  1.0574304683913723e-14  6.1019057032631953e-12  8.8087027893142938e-08  -1.3162264221724752e-19  -2.5924494376690758e-19  2.1008925368539786e-17  1.8060879201901245e-18  -9.3045109402559703e-17  3.1865202156229757e-13  2.8525257539490882e-09  -2.0128569829281122e-11  3.5523023543849620e-19  2.3491803006382675e-09  -1.4302183907594191e-11  1.3462660689288936e-09  1.8900100608138352e-05  3.8032239520312926e-11  4.6685666742998873e-17  -2.9193185527612548e-16  -3.6032913308137122e-18  2.1838430003475655e-14  2.6408541481545470e-13  9.8893615737661570e-17  -4.1080405475882524e-17  -4.1179085658324938e-16  7.8114506529620473e-13  1.2941433127691069e-13  5.2552363768149198e-17  7.1600667300159748e-01  -9.0067953374584878e-04  8.0415145890138353e-10  7.7713577414911912e-19  -8.2966616658587178e-17  1.2893597082496628e-15  -2.1867383276181005e-16  -1.4330112361778390e-20  3.5879846085824612e-16  6.1205188541886793e-21  -1.3975997900811100e-04  1.1666322993697568e-03  2.4617556563533177e-14  5.8143179338675987e-13  6.9309062916211389e-12  7.2753948091465353e-17  1.2224349623365769e-17  2.0948645160414421e-12  -6.4402154744169067e-08  -4.3536543313063289e-09  -1.0971357455069789e-06  1.6736148313457102e-11  -2.6815948844879425e-07  8.3213013884422707e-04  5.8131205440613695e-03  -9.9201848674762105e-13  -2.0199641064588331e-13  3.3398604799979333e-13  -1.2360702792374937e-14  -8.8487209823186268e-16  1.7136902353087580e-17  -7.4567523790974641e-15  3.9571359033534602e-17  -6.8047289006252121e-19  -5.1233836124521306e-14  -9.3794156185588110e-17  -8.2291860682057939e-17  -1.3956262142955835e-21  5.1902737081688110e-20  -1.0832913651819335e-12  -9.4746406930889028e-18  2.1285114873191476e-11  -8.9171087428684762e-15  3.7567953272000042e-13  -2.1770305062433995e-15  -3.2260934026664464e-08  1.4033307471818634e-11  2.3823432913282895e-10  3.9359104274840244e-12  -2.4328987509637140e-18  3.1756834316489319e-18  -5.8419730900061199e-18  -5.5284803196554208e-21  2.3609880423722134e-20  -2.3656112684221624e-20  1.4578171797923109e-11  1.2311331929037563e-09  -6.2461871233272620e-16  4.5046809661082946e-14  6.1093118118592144e-09  3.9338141170422625e-09  -2.9118718828551891e-12  6.1881712629427587e-12  4.3848626572694738e-10  2.2046340928506715e-10  8.4658748277810702e-12  1.2216028243981339e-15  4.1661690489891447e-17  2.2422113249564669e-14  1.6952186168670070e-13  -4.0493157623056894e-16  1.9835909196486516e-16  8.7617645492255944e-05  4.1509510817845277e-12  -1.0351656322836322e-15  1.9280204611691271e-06  1.8742648233682240e-12  3.2624044307387602e-12  2.8921076391276442e-14  3.0067690344399722e-10  2.1550730527498231e-03  -1.6211523050776449e-22  5.9978392434303554e-22  -1.1679783466608800e-07  -1.2463476542051021e-20  1.0679658327938156e-16  3.2503537921065902e-04  -1.4991172256959950e-02  2.2971700719545589e-03  7.1943325794159220e-19  1.1261596830974679e-16  1.1042110536690049e-02  1.0879132645598557e-09  -1.3178922039582327e-18  5.2154875305891217e-03  -1.1169627932738574e-16  5.8323247276686463e-23  -2.4056999273143012e-13  1.5007943574215937e-19  -5.7655240919868558e-16  5.7909033532691604e-11  -7.0070318106026381e-17  -1.1455365571407753e-11  9.6620228703771039e-17  1.5204254927301855e-04  1.1875345766822372e-10  1.9320048857908372e-02  6.6984914580021206e-09  6.4528367824612351e-17  7.6594321414693802e-05  -3.1511711972609251e-14  6.5367999827002166e-11  -1.7212970336327237e-17  4.8161751294810218e-13  -8.8664304760277580e-18  -2.2656648285896060e-18  8.2098996710496972e-11  1.0347862910894132e-10  -5.1651903474028618e-17  2.7080972158076232e-12  4.6135917291146506e-07  1.3688944661086680e-07  9.6785336657502774e-06  -1.3698695692509071e-17  2.0556650951987824e-14  1.3496119953827242e-10  -2.8827662630557035e-12  1.2981247297328470e-05  2.5310943836433524e-15  -3.4095304151595567e-16  3.3107419840817410e-16  3.6962372909371210e-15  2.7391395675784063e-13  -1.5467110213632773e-16  -9.3499704589835231e-17  7.2074636697860617e-01  -1.2466381566530535e-04  4.6986800419563954e-06  -1.3852694651595640e-06  -9.3017706242149920e-09  3.6895836177167173e-06  4.5777982491301841e-07  5.1938173517340988e-11  8.5163945710723910e-13  7.1614072730682516e-06  -1.5019707159195554e-19  5.5387059140138837e-11  4.0074052136000160e-17  5.8236187003891709e-09  7.9377587145117759e-09  1.3918387574011479e-08  1.5123891687422753e-06  7.9927391375939835e-18  5.2033835865975055e-18  1.6495453105436853e-09  -5.0999333934674873e-12  1.7991952641104041e-12  8.3452746995212286e-17  -6.6107455413171863e-16  1.1792132675423311e-08  4.1574032008883265e-09  -2.4149192863153522e-17  7.1861121251605720e-18  1.5553595440020047e-14  2.4258641633755678e-10  -2.9141858348297104e-11  -8.2426622257518700e-12  9.9331496138297560e-11  5.4101212921197017e-09  7.6152127540439820e-11  7.5387314121664591e-07  7.7416502741109901e-21  -6.3272728605541936e-18  -2.8314580872256623e-17  7.4120679641144736e-13  1.6071038663154977e-13  4.0468104920727570e-18  1.3617954157605523e-19  1.3044484746066049e-19  8.0532168810750530e-19  -1.8635200489975762e-11  1.6422584380278343e-11  6.6620282603293083e-13  6.2142366213312960e-09  -3.6767665512917795e-09  6.2616171466429252e-09  -2.6541605991844316e-17  5.5959247268321593e-09  8.5374917352992774e-14  2.0677695092145075e-07  -9.2819239519607684e-19  -1.0611643412719676e-14  -1.9555199108870831e-15  1.1583435912875467e-14  2.4556709356234036e-14  -3.1871469795012482e-14  -3.7379328427640798e-13  3.4117149077137555e-12  -2.4104118042498054e-12  5.9730855487745907e-12  1.8889162479067347e-10  -2.3678492402364707e-19  7.2769157300746228e-23  2.0252847120907307e-16  -1.2883321822724686e-15  -4.8384220754929328e-20  1.0320673758497069e-16  -9.4460207496569733e-20  -1.2615763768152608e-17  -2.3369703699383240e-16  -4.7838105986519274e-17  4.2589938269093381e-16  5.2563238072865872e-17  1.3972170206384617e-16  -2.3722288836873737e-21  1.5251963819787735e-17  -5.5121968403842078e-20  3.4473236112379046e-20  6.2207616849780396e-18  -4.4526127481770818e-03  6.3155588819063672e-09  -2.1393777723714050e-11  -2.9635650250382874e-10  -3.4509414004882521e-18  -5.5180830717056280e-17  2.7935194738991706e-16  1.1976686357441591e-21  1.6655657521820024e-06  -6.8595506433777814e-13  7.6506785393869261e-18  -1.5746650667096980e-06  -5.8988416946195513e-19  -2.3555335554627895e-10  4.6152527999450548e-13  -1.6468431234631611e-08  -7.340972567