<?xml version="1.0"?>
<VTKFile type="UnstructuredGrid"  version="0.1"  >
<UnstructuredGrid>
<Piece  NumberOfPoints="2745" NumberOfCells="5356">
<Points>
<DataArray  type="Float64"  NumberOfComponents="3"  format="ascii">323455.6100285493 6048753.88242996 0  323455.6100285493 5954782.59950515 0  405920.1480513444 5954782.59950515 0  405920.1480513444 6048753.88242996 0  405920.1480513444 6001768.240967555 0  323455.6100285493 6001768.240967555 0  364687.8790399469 5954782.59950515 0  364687.8790399469 6048753.88242996 0  364687.8790399469 5996367.117560402 0  323455.6100285493 6025261.061698757 0  382226.6271443229 6022560.499995181 0  405920.1480513444 5978275.420236353 0  323455.6100285493 5978275.420236353 0  353897.8957397301 6022560.499995181 0  344071.7445342481 5954782.59950515 0  385304.0135456456 5954782.59950515 0  405920.1480513444 6025261.061698757 0  354379.8117870975 5975574.858532775 0  381582.8168806895 5978840.396198289 0  384950.2598624413 6001768.240967555 0  344643.0480768835 6003429.02033719 0  344071.7445342481 6048753.88242996 0  385304.0135456456 6048753.88242996 0  339717.0321562298 5986078.187627405 0  337515.036058786 5969821.016310448 0  368062.2614420265 6013076.224998265 0  368062.2614420265 6032044.774992097 0  393987.6142659165 5988729.699941677 0  405920.1480513444 6013514.651333156 0  392856.2821527076 6034589.119828064 0  393514.9611654527 5968369.338068204 0  339399.8087404341 6032061.482581838 0  323455.6100285493 6013514.651333156 0  374995.9462927963 5965504.865595459 0  354379.8117870975 6037976.901948514 0  338123.9088969378 6017031.529131207 0  367397.3120126425 5982072.559192053 0  351882.5752379905 5991998.990225234 0  376945.425450199 5991232.708824487 0  392265.0061656896 6013300.936254065 0  357029.7426706699 6006608.947964352 0  380093.6207558212 6036880.127749795 0  323455.6100285493 5966529.009870751 0  405920.1480513444 6037007.472064359 0  405920.1480513444 5966529.009870751 0  323455.6100285493 6037007.472064359 0  333763.6772813987 6048753.88242996 0  405920.1480513444 5990021.830601954 0  323455.6100285493 5990021.830601954 0  362879.3643765316 5966837.319094267 0  348367.6438548031 5965604.161682394 0  334493.1989038612 5996935.948935225 0  395068.5043068817 6023875.372615605 0  348216.0324377587 6013504.844950221 0  379305.9090074943 6011603.390019651 0  372523.5158233726 6003480.000732267 0  395435.2039568929 5999384.346358113 0  395612.080798495 5954782.59950515 0  333763.6772813987 5954782.59950515 0  395612.080798495 6048753.88242996 0  374995.9462927963 6048753.88242996 0  374995.9462927963 5954782.59950515 0  354379.8117870975 6048753.88242996 0  354379.8117870975 5954782.59950515 0  335074.5981535012 6007206.680367459 0  391925.2695590468 5978591.908877409 0  371969.1707190623 6022560.499995181 0  383872.162544519 5969415.106147043 0  358038.7139835292 5984533.09712744 0  369699.869182786 5973102.2359358 0  369841.9126663716 6041099.453006387 0  343176.7440329155 5994428.220622956 0  362933.5332293962 6024385.235173292 0  330640.1760208776 5984148.625419154 0  348684.7494355051 5983110.856817525 0  399094.9690929834 6007537.420809742 0  345447.6324516311 5974162.84917082 0  332859.7749513451 6039150.972778062 0  344517.044630671 6024057.945416138 0  332973.1214415312 6025037.914505113 0  341428.0126373461 6040493.820728126 0  385874.264691618 5992757.40885039 0  350337.3662538711 6030387.535304286 0  359887.2373602368 6016186.250094838 0  377097.8989316926 6029115.217702097 0  338917.7109078235 5961484.016839475 0  329495.5261590715 5972402.215053552 0  336644.7280634616 5978216.610794215 0  330688.6715098422 5962480.256438018 0  359899.8039476132 6031963.415584587 0  399746.255941904 6030426.523907755 0  385511.6875144855 6030368.508996127 0  387377.735783329 6040763.821024337 0  398832.192399829 5974431.100387635 0  387992.9498994246 5962432.032572681 0  405920.1480513444 5984148.625419153 0  364925.7641745284 6005782.953640081 0  361769.877068089 6041226.651684469 0  398452.9199001931 6040850.732439541 0  398946.6205243983 5962252.502309519 0  362305.5577564609 5975984.89789681 0  356822.8065216601 5998470.186307689 0  386900.7115926162 5984820.732438302 0  329528.0119279922 6032067.230024892 0  331139.6939744562 6013813.572928222 0  398457.5876798834 5982541.698799337 0  405920.1480513444 6019387.856515957 0  398685.5166750694 6017257.578706384 0  348587.9424884976 6042755.309150081 0  369841.9126663716 5960143.732550304 0  380149.979919221 5960143.732550304 0  359533.8454135222 5960172.384722514 0  377147.8814772839 5972649.581024994 0  341756.3455763521 6010124.092444684 0  355615.8176864882 5966311.193813809 0  369144.4338274571 5989807.770003954 0  375185.9047422862 5983510.422041401 0  323455.6100285493 6007641.446150355 0  391856.7960121195 6005888.565703365 0  371978.0245217044 5996361.134308098 0  405920.1480513444 5995895.035784755 0  378877.1880032702 5998073.745937059 0  359056.6617417652 5991643.489540118 0  399278.8743430426 5993436.466134224 0  386116.8775939071 6009922.097099247 0  323455.6100285493 6019387.856515957 0  388994.7833819839 6019826.789191471 0  348897.6207366391 5998116.079250046 0  345456.3301153719 6035064.814295612 0  323455.6100285493 6042880.677247159 0  334124.3013408988 5990072.953472659 0  377097.8989316926 6018059.782440464 0  323455.6100285493 5995895.035784755 0  342871.8474798963 5980154.238874755 0  373596.9793292385 6035659.183886081 0  380149.979919221 6048753.88242996 0  376327.9292813152 6042294.581731233 0  329163.3548105369 6004704.843558955 0  350303.9432136903 6007093.032074522 0  383982.6552804571 6015912.664375832 0  345515.490569988 5988567.439252969 0  379019.812877927 6004678.052169549 0  365541.9137639466 6018750.691894444 0  349225.7781606728 5954782.59950515 0  352493.3399767278 5960815.406895458 0  363683.8130458911 5986976.225872464 0  386666.791301207 5975084.583584332 0  368937.6553346639 5966171.092344863 0  400003.9882214358 5968352.273777306 0  328776.0063842635 5992958.433193355 0  339958.4428758043 5999572.344589042 0  354577.7732363954 6012555.454074449 0  328609.6436549741 6048753.88242996 0  382053.0280278458 5988228.496807038 0  330708.6817934912 5978212.973348036 0  372084.7734679543 5978495.086505585 0  358568.2738174705 5971419.415228934 0  328931.2672829705 5998832.905089681 0  323455.6100285493 6031134.266881558 0  405920.1480513444 5972402.215053552 0  405920.1480513444 6031134.266881558 0  323455.6100285493 5972402.215053552 0  405920.1480513444 5960655.804687951 0  323455.6100285493 5960655.804687951 0  405920.1480513444 6007641.446150355 0  323455.6100285493 5984148.625419153 0  405920.1480513444 6042880.677247159 0  346648.7613474604 5960023.05127712 0  342415.3891593561 5966358.988213831 0  350507.6510228226 5971111.740321856 0  391773.9667214506 5994456.117700323 0  338875.8905424621 6026088.827345025 0  361429.1735454847 6010511.262533597 0  389395.7028803263 6025805.543023561 0  392895.6464692951 6043315.288173481 0  332846.8296575367 6019296.633131165 0  373337.4404588729 6009693.515402478 0  336544.3064612215 6043648.151399015 0  348610.2411382072 6019567.839754772 0  381943.4597763228 6042183.394750732 0  355630.0631288611 6028071.82801846 0  363941.5238882306 6035967.852698964 0  328179.67203552 6022271.326978176 0  401066.2857736665 5998807.415073814 0  344387.1099621175 6029612.545574771 0  393435.2235156003 5960233.556458537 0  400735.9970493424 6022675.638064924 0  393708.5772019727 6029179.837160029 0  400609.0696943338 5987857.851798974 0  361753.6614662939 6001152.171757337 0  400766.1144249197 6048753.88242996 0  353363.0524357285 6002630.165620538 0  343248.328463803 6018790.640008039 0  356419.8105951758 6043365.392189237 0  390234.385899412 6000759.497967276 0  368336.1168551637 6000220.532318851 0  328609.6436549741 5954782.59950515 0  387520.8298169724 6035372.992507171 0  400588.0280660195 6035823.299583429 0  329021.6598427091 6043194.252697862 0  393371.710206733 5983576.325812268 0  393638.9721728675 5973623.513063556 0  371727.9212466564 6017113.044457142 0  364687.2762977295 5959941.212693035 0  374995.9462927962 5960346.83186599 0  369841.9126663716 5954782.59950515 0  400766.1144249197 5954782.59950515 0  338917.7109078234 5954782.59950515 0  369841.9126663716 6048753.88242996 0  359533.8454135222 5954782.59950515 0  390458.0471720704 6048753.88242996 0  338917.7109078234 6048753.88242996 0  390458.0471720704 5954782.59950515 0  359533.8454135222 6048753.88242996 0  380149.979919221 5954782.59950515 0  349225.7781606728 6048753.88242996 0  339867.4956514095 6005339.817053361 0  333737.9460226952 6002130.523287664 0  336955.8140048417 6012008.440073739 0  377097.8989316926 6023232.32559834 0  371748.9790486701 6028016.629988787 0  338146.5171983215 5993298.164761053 0  355016.8390227688 6017610.913088997 0  393953.1528190996 6018968.416019509 0  335185.8133477239 5965142.63403323 0  328616.6041642396 5967263.80307608 0  380314.9487662361 5965460.362415641 0  354622.8993466098 6032976.142863722 0  328521.4725131759 6027215.026914048 0  334465.0783479523 6034070.534389696 0  328123.6212682287 6009699.206425843 0  381889.5169855529 5973936.741901617 0  359122.3484437474 6036790.002992895 0  386341.6533148278 5979963.279841923 0  400798.2159679119 6012477.871311778 0  388538.3765260249 5967461.292146791 0  340833.8784183678 5975728.708105717 0  355307.6239213505 5988552.151815021 0  362181.4274823388 5981261.937800813 0  353784.0322742948 5981044.538811012 0  358045.1698423899 5978741.391518688 0  328423.7350325213 6036912.015930048 0  366897.6876966125 6027277.723668203 0  347355.1745641421 5978532.307510624 0  376820.5060332146 5979033.270735624 0  349378.1778589479 6024378.632814493 0  327189.2282939323 6016451.253924556 0  338433.8773236172 6036753.902881841 0  350141.9760340559 5987605.90026687 0  363794.7083927878 5991713.491814731 0  350325.1285660182 6035273.515460094 0  382355.9358007369 5983507.499638396 0  327107.0747437811 59811
[...]
<PointData  Scalars="f_50-1"> 
<DataArray  type="Float64"  Name="f_50-1"  format="ascii">-1.5796086180289667e-27  8.1100867246001823e-27  1.0841912987043694e-21  -1.3198639223290700e-25  -6.7137231744889806e-16  -2.0802773870994022e-22  -3.5676575222515916e-21  4.0004389954408842e-22  1.4311833581053069e-07  -4.8042656702222899e-23  -3.2282148106878516e-15  2.9348363654082006e-17  1.1924136943172345e-22  -3.1730178517744886e-15  -8.7145842158322956e-24  6.7197255352208263e-21  -4.0640671660654114e-20  -1.5755195371444319e-16  2.8751129325017939e-11  -1.7017442170863594e-10  9.3188874770920251e-15  7.0025532205051137e-23  -3.2131760580924736e-23  -1.3585327544433852e-17  1.5271937061520491e-21  3.1199139079720179e-10  -5.8739696431787720e-17  6.7605768916089333e-12  -2.2731698694016268e-17  -3.3830404623169137e-20  -2.0200959487860671e-16  -5.0008932620427390e-21  -9.7215766240923027e-22  2.3937717651949542e-17  -7.9480271516154269e-19  -2.7698349272691316e-19  -1.2199509623390825e-12  1.4765819957525807e-12  1.0750685195698359e-05  5.3524840347551981e-15  1.0411816598597254e-10  7.9685115881339984e-19  1.0619503053801528e-24  -8.8048306888772977e-24  -4.9858235917052089e-20  -5.4859947752223411e-25  -6.7459879345926217e-26  8.7146998430147337e-16  -1.0836447633940173e-21  2.8180332206278253e-17  6.1192040272747397e-21  1.6611401485504289e-18  -4.4413313550190333e-18  2.2212258865499488e-14  2.9532850415773957e-11  3.1100321178770736e-07  4.9643592361316102e-12  1.2410639638139155e-20  -1.0694039270807198e-24  1.1958518569328297e-23  -4.0275484625741450e-22  -4.0460492846033029e-21  -9.2369497389595372e-24  -5.0567280744793655e-22  6.3795185395071572e-18  -2.2985652879350108e-13  -5.6569031692484402e-14  -2.5645350066111685e-15  4.9358963357405888e-12  5.4702413663452656e-14  -1.8261877173199940e-19  -6.7992278710881873e-15  -1.5493249798332794e-14  3.2517530374056844e-20  6.9687855584989030e-16  -3.1099397372320534e-15  2.7901111156364029e-18  -9.7332750200890153e-24  2.0811368448287836e-17  1.3827202533837161e-21  2.5954764247022352e-22  -9.8744416170531718e-09  -2.9654536717167818e-17  5.8817036900940206e-12  -1.5388622439879334e-16  6.7563415899912567e-23  2.1789099133730480e-22  -8.2724515219505246e-20  1.2530553787187230e-24  -2.8002735719269475e-17  -1.3044276482852644e-20  -1.8776306069644937e-17  -5.5376901408879875e-21  -1.5592602605761349e-16  -9.8052228499427788e-18  2.5827533462274032e-16  -1.4200442461451389e-07  -1.2841515841856983e-19  -1.7607438036088916e-22  -1.0178999431315037e-19  2.4005481924155151e-14  6.5053780513151285e-11  -7.6948834904285855e-11  -3.2184902033408472e-24  -5.3809880931812877e-20  -6.1596641973757962e-15  -7.6930312558856529e-19  1.6354981115101380e-17  7.6735053447832145e-21  -2.8818902409541489e-19  -2.8040105734422057e-19  -2.7162289704719215e-20  8.6202517978100252e-14  -3.3902270647052744e-16  1.0645627095333723e-18  -1.2973903708767267e-09  4.6858975207161507e-10  1.1117763360080218e-21  1.3049161846776324e-12  4.4361587328174083e-04  7.7119422509648414e-16  2.2735321706890362e-06  6.5879617593456206e-10  2.3084881258061214e-13  -4.1961403200128914e-12  6.7083004236524514e-23  1.0208919652089631e-16  7.9271718852045559e-13  -5.3125483648224436e-20  -2.6834703295792117e-26  4.7478043490756589e-18  1.6215726205264053e-11  3.1342935349807519e-21  -2.3350809149641433e-18  -1.4104982772581780e-18  9.5442554532832852e-22  -4.0971147610007892e-20  -9.0791037722324397e-20  -2.9650660596891351e-13  3.8873594242391916e-13  -1.3778071865180460e-16  -1.0000853218049141e-09  -1.2078669255114218e-12  1.5181366938735859e-23  2.1175560046730143e-22  -2.4878046637354109e-11  1.2475298337807118e-12  2.2835803331831246e-17  2.1257133062485034e-18  -1.3340215204163611e-19  -1.1691629083312723e-16  2.1633269126592380e-12  -3.3751891113430552e-28  3.4370906918541997e-08  1.8859276066982440e-23  -5.9161874667881899e-13  -5.7400554208980468e-17  -4.7901927439849619e-20  -9.3480646251398397e-25  -1.9902661744406446e-18  -8.9000061779309135e-22  3.1655454432226946e-24  -1.2339969398398689e-20  -1.3069562568472967e-26  -6.4715130761342647e-17  1.9052369776393366e-21  -1.1074614497152790e-24  -4.3132505761341764e-22  1.0829315372839345e-20  -3.9932260217297084e-18  1.2447982621587768e-10  1.2447286493424997e-19  -1.5926793605896537e-10  5.8706588748782371e-18  -2.7857639332164346e-22  2.2192297029976843e-20  5.3247722719358471e-09  -3.5027679707493577e-24  -2.1734427962655660e-15  -6.0617527612078137e-21  -2.2182487357875924e-16  -5.6154993377165996e-19  7.8223740141085837e-22  -5.2264257644185961e-15  -9.4265788817598601e-19  4.0213125765842135e-19  -2.2803918533421940e-19  -1.1041643436466342e-19  -1.3486176375252798e-14  1.0396024103294667e-07  -5.8940188043342009e-25  5.6092563081419357e-12  -8.3246481341779438e-18  9.3927741966956428e-22  -2.4497754001384744e-11  6.2100223309479949e-05  1.2354762203209200e-25  -1.9188787454230907e-19  -2.6769465337225196e-23  4.9713718248599054e-26  -4.1127420127510081e-13  2.3645226676077252e-15  -2.6829964976801616e-12  -1.3526311334703678e-19  1.5113625519386793e-19  -2.3900604408618437e-21  7.8740070341050949e-22  -9.9559143384501081e-24  -1.2059453240254588e-21  -6.8278557854547416e-22  -3.1495735564980954e-23  -2.1998062433522358e-24  2.5025270564043987e-20  -8.2564557312432286e-23  -1.4911608556791633e-20  3.9399450568503794e-22  -4.3434868170687618e-16  -3.2338287971233880e-18  6.7165607414761920e-18  -1.5137285838437710e-14  -2.5384887993399189e-17  1.4750481991846514e-16  -1.5131638131932534e-13  -1.3436217206908987e-17  1.9209522531010550e-22  -6.5577272023809097e-25  3.1655747262844322e-17  -1.5463699687065115e-17  5.8818443921958226e-23  1.8706604424161195e-22  4.2845246516766471e-20  -6.8279556871599431e-14  -1.5761540455771559e-18  -4.6496856822293438e-12  -2.3565635477089515e-16  1.4552834622831717e-16  -2.2231418253205819e-19  9.8489259518578854e-12  3.8649544290591955e-13  1.4400067007604567e-14  2.7466111058169854e-14  -1.2589831859310216e-24  -1.4144279479168096e-15  4.7996477143301667e-17  -2.5977712186355622e-12  -3.4765392462998398e-16  8.8933663896810179e-22  -4.5342985071329954e-22  4.6492879288697865e-14  4.9138159520084932e-09  3.4553867088922482e-19  1.6849463220191415e-09  4.3722755264424927e-22  -5.3119998142663525e-19  -6.0246280358121884e-20  -5.4923934016052904e-08  1.3311513498576226e-16  3.0162273406203675e-16  1.5517870875578025e-13  -9.0996043638005052e-21  1.4950360841856555e-20  -3.4406111990808666e-18  5.8982795757802797e-23  -1.4883597932136864e-21  9.9055978956714604e-14  3.3256294046849070e-10  5.7130827118038773e-22  4.0838249768814806e-09  1.6639847760590810e-19  -1.7475220815619765e-14  1.1794317821387307e-10  2.6184109686604352e-06  5.6631817490146571e-15  1.8647416801242457e-19  9.4744704406070967e-14  1.0067314521060990e-14  3.7495720375364493e-15  5.6385240596835474e-14  -6.8997171867877262e-11  4.1213743788313867e-18  -6.7414127459229540e-18  -3.1556474031960905e-16  2.8728380526920496e-13  -4.3359157331253935e-11  7.1186510855760275e-11  -1.1504700226616899e-21  1.0959167792255917e-13  2.6100010516604038e-23  1.3272631058749907e-19  8.7972431825154411e-15  2.6019361255067735e-16  1.3229888369903732e-16  -9.3258613261885290e-23  1.8590709034658063e-18  4.1163893547381796e-18  1.2164264272951739e-08  -3.7994346648783139e-19  -3.2840043692966507e-24  -1.1237455232324962e-22  -1.7472561000080638e-11  -6.5002617808338288e-20  -1.2886741204900464e-18  2.8100344894432700e-23  -2.8108088658871480e-17  -6.7585233974080789e-24  -1.1982759166934387e-23  1.4880415263785233e-25  -3.5393130108936436e-07  -3.9624282989543920e-21  -2.5590752520224006e-10  4.8474089510035288e-21  1.4081736670769731e-24  -6.8918452194154636e-20  4.2336017225192784e-18  -1.1143975870040963e-17  1.1295733594365350e-19  -1.8835057576230289e-15  -8.7096145142620706e-18  1.1805945589256557e-19  7.9714728582068701e-20  -8.1559531284863672e-18  -8.3604053564176869e-13  -1.9138291761697994e-10  1.2818839780770578e-10  1.0145402432650216e-20  -1.4440489481109673e-15  -7.4162489050934133e-19  1.1731696658092486e-25  -7.5810745568111245e-24  -7.2398981955034526e-18  -5.8400516974557442e-17  6.0160862825684410e-17  -4.6108984431585064e-19  -1.7266199461473405e-20  -1.7546241011445793e-19  1.8384128731380263e-21  -3.8806141812336918e-09  -7.7835074826552638e-16  9.9927728619513648e-19  2.0288020826565407e-13  -1.0432763219342923e-09  2.3671945875373828e-09  6.9129883040396584e-07  1.3672251594916244e-06  -8.9152752178364562e-21  -2.3270891858915666e-12  2.1642409385012133e-17  3.1090190833283340e-18  -4.5609317833698901e-17  3.1778688284094815e-16  2.4825935626838627e-27  1.3690882452011456e-25  9.0636443537575922e-13  2.0497414067696660e-19  -6.3377481194190568e-19  3.1378971657813301e-11  6.5391041106791361e-20  3.2589636843157639e-13  -2.4796997002738619e-21  -5.7352498119291707e-15  3.1430919952687086e-13  -2.0228972357477438e-22  1.4294680043906005e-24  9.8342255716220716e-09  -9.9477974481273057e-13  -5.5028615532900784e-18  -4.4075904321018378e-18  -1.0436108510923370e-18  -5.6521343627298985e-26  3.5773766113273661e-22  3.2693224730486232e-21  1.1320175118512330e-09  1.4642399218155206e-14  -6.2338685975501762e-21  -1.1934719579513883e-20  1.0479045032127340e-18  5.0519333818587384e-19  -3.4012042641358374e-20  -9.3062865540111830e-21  -1.7400567483525112e-14  2.7107590908764030e-12  8.0668285520135978e-18  6.0882957706302503e-22  7.6215438342710312e-19  2.9073594386710547e-16  -1.2448774422724583e-21  6.1360206624212455e-19  -7.2077310461243984e-11  4.4181753188356502e-14  -9.2361273577596351e-17  -3.7996059075563826e-20  4.8232104174516183e-21  -2.3426802656352332e-24  -5.9211261989751219e-19  -1.4552154706117166e-10  9.8546672381214374e-17  6.4781455253000470e-19  -4.1160435374781340e-16  -1.9716903279671920e-17  -8.0175832745682244e-18  9.4617872824439356e-16  -5.0218801379040037e-16  -5.1009528034481467e-21  -1.8028006205353917e-18  5.9732564653776122e-12  7.0420212304883127e-13  2.6235341585674587e-13  3.6272264426408686e-12  1.0518774546427163e-10  -2.9520514377359740e-15  4.4465897456188176e-14  -6.1025311474279217e-19  -1.9447443321094526e-19  3.6824894274822580e-12  2.7684040392587438e-24  -6.9048918439890796e-10  -6.9121566793219980e-04  2.9939936224402134e-23  -5.0287663687706486e-20  1.6736926531908912e-12  -5.7345797032221768e-17  -2.4939342104426943e-11  -1.5847246129370095e-19  3.8981012625315567e-22  2.1035623425335550e-23  -4.8756105269887962e-22  5.8228432553444000e-21  1.5439015122056020e-14  1.7084765485022008e-13  3.5675720650093747e-17  -8.7439328760268350e-17  -1.2975229957624088e-21  1.2679609671630157e-11  -4.1605741645249429e-12  -1.0302545339062412e-11  2.7389660621983385e-16  3.2382137297231006e-19  1.8516750684589979e-15  5.3104057136476195e-12  6.1089587203182271e-13  3.1833121943325899e-10  -1.1878345596461515e-15  -1.8742066310376250e-17  -9.9404832409067963e-06  -2.7147945806086879e-23  -9.0530375801356457e-17  -2.1988820302487400e-15  5.1755202478271755e-14  2.6047573183236852e-19  4.6511557067143971e-18  3.6430507674977378e-22  1.5722518383009535e-05  1.5563004550563872e-11  1.4145597744438632e-19  -4.0117183652341746e-13  -1.9392994936106880e-16  4.3006599379151684e-22  -1.1049767712222453e-14  2.0594459936019443e-18  3.7039225662626394e-11  -4.6226155252053707e-20  -2.9831864682977159e-20  -1.9905131433357312e-18  4.1202415117381559e-18  1.6884974391377641e-23  -9.0462181480630556e-19  -8.7273056381648983e-21  -1.6961153503863366e-14  1.5872806898112147e-16  -2.0692619655111373e-12  5.9573901440522985e-20  4.3722889462301009e-15  -4.3087158777452690e-16  1.9942743968996572e-23  1.1980356265172661e-05  -1.5828344955829433e-20  -4.2908522027155176e-17  8.3969968087427065e-18  -1.2757845130804634e-14  6.4702250331720593e-13  -1.5780913783426744e-21  4.5543652313779948e-15  -1.4270909971831192e-08  1.8463855345853370e-19  8.9805013877517649e-17  -7.1220467190569705e-18  7.2762798602746346e-19  7.9883950802717647e-21  -2.5091784494135543e-17  2.2444718374678449e-10  1.6848276206536675e-04  7.4909252288372191e-16  -7.6582495536995686e-17  -4.2716695088221387e-27  8.6990944822061494e-16  2.1502840730239046e-15  3.7685523211870171e-12  1.2008438815965414e-20  1.5240976167323190e-20  1.4795962613544819e-21  1.6319635014499818e-13  1.8798106605445398e-23  8.8378993641205567e-25  -4.6527003777052534e-24  -8.6428546133380047e-22  -3.1643576463024947e-13  5.9456553123838290e-14  -2.2595196350921309e-13  4.3391164281630712e-21  1.2446819957611635e-13  3.6890765492725585e-19  1.5333560824986638e-14  2.8494840099803895e-20  9.6051626300159483e-11  -3.2132753773775049e-12  5.1075948538361967e-14  6.2729317511359102e-17  -2.2406075345439873e-16  7.4583170705355908e-16  1.1516078261151280e-07  -9.1151137578154011e-10  -2.0797481402195390e-10  -2.4044965558938405e-14  -2.7204025752046175e-20  -1.3767706608664370e-09  -3.6981050884955019e-22  3.7346294999764130e-21  1.5597771845104642e-20  -5.1170956838702922e-21  -7.2420647995028756e-21  -9.4292496665548585e-20  -6.8095436566414935e-25  1.4672455868592296e-12  -3.6586496049620326e-20  7.5648345715254715e-23  -7.3739883584813845e-22  5.4759048630838686e-20  -1.5742713897452664e-18  3.7297208013879806e-14  1.3418998209561360e-26  -4.4732052442284435e-26  2.9116766974165863e-20  -5.5597291053022595e-27  -2.0403290728268228e-12  -1.2945377408970548e-12  4.4984732341468547e-12  -4.4739270744668858e-10  1.5701404775769042e-19  -1.4304175601614133e-10  8.2312227744493182e-24  8.0136182373657050e-14  1.2923957974246516e-18  5.3560277459208763e-18  -1.2451362430936947e-16  -5.0266399722022830e-17  2.2561116277277762e-12  -9.3186042880990926e-24  -1.5608154724831418e-23  1.5078075910960052e-21  1.4339081446132161e-22  4.7683352658431814e-21  -1.6394707284403204e-18  8.1069384965018020e-13  2.6131113695297520e-16  -5.6253566483063536e-23  1.1331640361897020e-15  1.2440933203620673e-15  1.4630812818485230e-15  1.5634027082325335e-10  1.2674217923545394e-15  -1.6946467758442195e-21  3.7325759995846337e-20  1.1806054840487986e-21  8.2852704253541975e-19  2.0051166910288233e-18  -1.8851855586095897e-20  -1.2325274877927301e-21  -6.1723492267415457e-22  1.8909537388095832e-18  1.6806241216932242e-18  5.6690378073050720e-22  -5.8413342963698656e-06  1.4053523390423875e-07  -1.2306805486688103e-15  6.2544426113657551e-23  -1.7067522229833111e-21  1.6353012583323069e-20  -7.9715208469010892e-21  -6.8031938801339094e-25  4.8720343483976193e-21  7.8744348938421997e-25  -8.8823510688838766e-09  4.3496068933124793e-09  8.6840205563288444e-20  4.7681541969753878e-18  3.9698743579249567e-17  5.0897285530891420e-22  9.9015680961696131e-23  3.1650377873741768e-18  -9.1811648087804006e-13  -9.8471331287647477e-16  1.9770724760128484e-11  9.6263483832617752e-16  -1.6140738773633261e-11  2.3691804379376577e-11  -3.5294809989996921e-09  -3.1994471392811809e-17  -1.2937403120673021e-18  -3.9146119868283839e-19  -7.9607505717484854e-20  -1.8547073466850123e-20  1.6197390010797987e-21  8.2755304434068060e-18  1.2906886318721529e-22  -3.8575004762156904e-23  -1.2294370992739737e-17  3.1650972809986024e-21  2.8515092518149141e-20  -3.2976694424400451e-26  4.8958163792414750e-24  -1.0048376198416757e-16  -3.5319526199885967e-22  -2.1800145770335271e-17  -5.4366076722727738e-19  2.5726128110385424e-18  3.8601060884844544e-20  3.2983400248163863e-13  2.3607904154976963e-17  5.5156357390310842e-16  -2.3200200711452957e-18  -5.2488326225868106e-23  5.0235397532385167e-23  -3.8665641809498837e-22  -8.8108484329824306e-26  -2.6484098906582231e-23  2.3989208220055445e-24  2.2187340825008427e-17  -5.1306379263727036e-15  2.0394195487922988e-20  2.3674521426541607e-19  3.7942717263098332e-13  1.8291975009367384e-14  1.4618321443920051e-17  5.9257279535662010e-17  1.8196119855452272e-15  1.3370471989401498e-16  -1.9115141197700468e-18  -2.0017329072093788e-20  -8.6275851609924800e-22  8.6267841856141895e-20  3.2243868819126937e-21  -9.6735036603798233e-21  2.9873249879588063e-21  -1.4018680461562847e-09  -3.0631971837281952e-15  -9.0888597616381753e-21  2.2104216321139887e-11  4.3498314343120530e-18  -2.4725558081875746e-17  4.2192304882320365e-19  4.2276561165096877e-15  3.2972377523491203e-09  4.6494669000166529e-26  -3.6911946564566175e-26  4.6794857947165784e-12  1.1032697272185334e-24  9.7126190755015095e-21  4.7739419075487840e-10  2.3366767263977238e-07  1.5607053413974157e-08  1.1612112210560653e-23  2.5828320106740741e-21  -3.9843432638503633e-08  -8.8515746196103229e-14  4.0234889042766886e-23  8.5845181076491463e-08  1.2430499091766303e-21  4.2232649108637116e-26  -3.1215929120537383e-18  -1.0451778861323830e-23  -3.5906644199364038e-20  1.0354582666612326e-15  2.0981189316369895e-21  -2.9904060864088867e-16  -2.6709654221366853e-21  7.6721969404694548e-11  5.9155720345876587e-16  6.7970794614647768e-07  1.6630241556696041e-14  -1.2501615152822616e-21  1.6262730043277558e-09  -1.9964715048441069e-18  -1.7356164648583125e-15  5.1994968053519112e-22  5.3867159872347829e-17  4.7523481686298230e-22  -9.3241608342186902e-23  5.8584469006414417e-16  3.3211382436691165e-16  -1.1692382196852929e-21  -4.4794847766974504e-14  -1.0790879758862426e-11  2.0275707108027684e-12  3.1530748131463914e-10  -9.1800158340897416e-23  -8.4753099541714888e-20  2.0191642624315048e-16  -2.6826546198923970e-17  1.5521542810416705e-11  5.1233590737712289e-20  1.0268608357365268e-20  2.6039716764790517e-20  1.6178316327716027e-19  2.2010229517468318e-18  3.1672888125382416e-21  -4.4788346298378653e-22  4.3322159999593594e-05  4.8389560303634655e-09  2.2234296924815075e-11  1.7495427192221389e-11  -8.5917539977380204e-12  2.0487544558099150e-10  1.3783939044687039e-11  1.8481563862348440e-16  1.2492228895193239e-17  2.0664279377660793e-11  -7.8052043730929245e-23  8.9519943289932902e-17  1.7935945314278278e-20  -5.5841087944110175e-14  3.7979939589172655e-14  5.2042059036474473e-14  1.5558014225831694e-11  5.1196023849793798e-22  1.3841228135822299e-22  9.9062322654857597e-15  -1.7445070428196469e-17  2.9303862022551567e-18  8.6595884593259011e-22  -1.6137541526271306e-20  2.3210003620862338e-14  1.6514460182971728e-13  -1.7072604175014492e-22  -1.0089878704296869e-22  1.6395526418425169e-20  1.1154732082656780e-15  -2.0758253654787052e-16  -1.1519966089727806e-15  2.1152799507588672e-16  -1.9440460654003514e-13  1.9023800225375475e-16  9.7403921702743203e-13  -1.0870501568404435e-24  -1.9364589031257380e-22  -1.3794037143569929e-21  3.3161744287749087e-17  -7.6112258471599798e-19  -1.4324446595157876e-22  -2.7736745724198838e-25  1.1633057469942683e-24  5.0972773765426849e-24  3.4068463401489964e-16  -3.1477546356005656e-17  -2.4181705971554799e-17  -1.3130902993684206e-13  3.3188596762214663e-14  1.6329275829111280e-13  9.6978402810479486e-22  3.0284885358649248e-13  2.9407481803127659e-19  6.2304760794871084e-12  -1.2829052289925080e-23  -2.4437374734139761e-20  2.5528950184370218e-20  -2.8264239866732747e-19  5.5384832272949363e-20  -4.3942051361487174e-19  -3.0873585448820009e-18  4.3008121851138541e-18  -5.1426939854766010e-18  6.3690769265319109e-18  -5.0919138640922925e-16  -7.8980413281204761e-24  3.7309799703107453e-28  -1.7724092507851746e-21  -2.8342883147906066e-20  4.0342871123389680e-24  -2.2194860763319130e-21  3.0136663883518610e-23  -7.4248345620572447e-23  3.5166720731654454e-21  2.4665651477934053e-21  4.1764021060629563e-21  -1.5172060270926751e-21  7.0451501241894968e-21  -6.2793616319944547e-26  -4.7479049393589926e-22  -2.9212432138426342e-24  1.0031287538915142e-24  6.0391703993258037e-23  -1.5597199865177468e-07  -2.5900556212923415e-13  -1.4572593918048979e-13  -1.0102826115961562e-15  -7.7446793096305817e-23  -6.3256899544403333e-22  1.2830726181728801e-20  2.7123893045984900e-25  6.5076407978011281e-11  2.9331789856073855e-17  4.0959661324041572e-22  -2.9689835890952443e-11  -2.2085650246948269e-23  -2.47566395620