<?xml version="1.0"?>
<VTKFile type="UnstructuredGrid"  version="0.1"  >
<UnstructuredGrid>
<Piece  NumberOfPoints="2745" NumberOfCells="5356">
<Points>
<DataArray  type="Float64"  NumberOfComponents="3"  format="ascii">323455.6100285493 6048753.88242996 0  323455.6100285493 5954782.59950515 0  405920.1480513444 5954782.59950515 0  405920.1480513444 6048753.88242996 0  405920.1480513444 6001768.240967555 0  323455.6100285493 6001768.240967555 0  364687.8790399469 5954782.59950515 0  364687.8790399469 6048753.88242996 0  364687.8790399469 5996367.117560402 0  323455.6100285493 6025261.061698757 0  382226.6271443229 6022560.499995181 0  405920.1480513444 5978275.420236353 0  323455.6100285493 5978275.420236353 0  353897.8957397301 6022560.499995181 0  344071.7445342481 5954782.59950515 0  385304.0135456456 5954782.59950515 0  405920.1480513444 6025261.061698757 0  354379.8117870975 5975574.858532775 0  381582.8168806895 5978840.396198289 0  384950.2598624413 6001768.240967555 0  344643.0480768835 6003429.02033719 0  344071.7445342481 6048753.88242996 0  385304.0135456456 6048753.88242996 0  339717.0321562298 5986078.187627405 0  337515.036058786 5969821.016310448 0  368062.2614420265 6013076.224998265 0  368062.2614420265 6032044.774992097 0  393987.6142659165 5988729.699941677 0  405920.1480513444 6013514.651333156 0  392856.2821527076 6034589.119828064 0  393514.9611654527 5968369.338068204 0  339399.8087404341 6032061.482581838 0  323455.6100285493 6013514.651333156 0  374995.9462927963 5965504.865595459 0  354379.8117870975 6037976.901948514 0  338123.9088969378 6017031.529131207 0  367397.3120126425 5982072.559192053 0  351882.5752379905 5991998.990225234 0  376945.425450199 5991232.708824487 0  392265.0061656896 6013300.936254065 0  357029.7426706699 6006608.947964352 0  380093.6207558212 6036880.127749795 0  323455.6100285493 5966529.009870751 0  405920.1480513444 6037007.472064359 0  405920.1480513444 5966529.009870751 0  323455.6100285493 6037007.472064359 0  333763.6772813987 6048753.88242996 0  405920.1480513444 5990021.830601954 0  323455.6100285493 5990021.830601954 0  362879.3643765316 5966837.319094267 0  348367.6438548031 5965604.161682394 0  334493.1989038612 5996935.948935225 0  395068.5043068817 6023875.372615605 0  348216.0324377587 6013504.844950221 0  379305.9090074943 6011603.390019651 0  372523.5158233726 6003480.000732267 0  395435.2039568929 5999384.346358113 0  395612.080798495 5954782.59950515 0  333763.6772813987 5954782.59950515 0  395612.080798495 6048753.88242996 0  374995.9462927963 6048753.88242996 0  374995.9462927963 5954782.59950515 0  354379.8117870975 6048753.88242996 0  354379.8117870975 5954782.59950515 0  335074.5981535012 6007206.680367459 0  391925.2695590468 5978591.908877409 0  371969.1707190623 6022560.499995181 0  383872.162544519 5969415.106147043 0  358038.7139835292 5984533.09712744 0  369699.869182786 5973102.2359358 0  369841.9126663716 6041099.453006387 0  343176.7440329155 5994428.220622956 0  362933.5332293962 6024385.235173292 0  330640.1760208776 5984148.625419154 0  348684.7494355051 5983110.856817525 0  399094.9690929834 6007537.420809742 0  345447.6324516311 5974162.84917082 0  332859.7749513451 6039150.972778062 0  344517.044630671 6024057.945416138 0  332973.1214415312 6025037.914505113 0  341428.0126373461 6040493.820728126 0  385874.264691618 5992757.40885039 0  350337.3662538711 6030387.535304286 0  359887.2373602368 6016186.250094838 0  377097.8989316926 6029115.217702097 0  338917.7109078235 5961484.016839475 0  329495.5261590715 5972402.215053552 0  336644.7280634616 5978216.610794215 0  330688.6715098422 5962480.256438018 0  359899.8039476132 6031963.415584587 0  399746.255941904 6030426.523907755 0  385511.6875144855 6030368.508996127 0  387377.735783329 6040763.821024337 0  398832.192399829 5974431.100387635 0  387992.9498994246 5962432.032572681 0  405920.1480513444 5984148.625419153 0  364925.7641745284 6005782.953640081 0  361769.877068089 6041226.651684469 0  398452.9199001931 6040850.732439541 0  398946.6205243983 5962252.502309519 0  362305.5577564609 5975984.89789681 0  356822.8065216601 5998470.186307689 0  386900.7115926162 5984820.732438302 0  329528.0119279922 6032067.230024892 0  331139.6939744562 6013813.572928222 0  398457.5876798834 5982541.698799337 0  405920.1480513444 6019387.856515957 0  398685.5166750694 6017257.578706384 0  348587.9424884976 6042755.309150081 0  369841.9126663716 5960143.732550304 0  380149.979919221 5960143.732550304 0  359533.8454135222 5960172.384722514 0  377147.8814772839 5972649.581024994 0  341756.3455763521 6010124.092444684 0  355615.8176864882 5966311.193813809 0  369144.4338274571 5989807.770003954 0  375185.9047422862 5983510.422041401 0  323455.6100285493 6007641.446150355 0  391856.7960121195 6005888.565703365 0  371978.0245217044 5996361.134308098 0  405920.1480513444 5995895.035784755 0  378877.1880032702 5998073.745937059 0  359056.6617417652 5991643.489540118 0  399278.8743430426 5993436.466134224 0  386116.8775939071 6009922.097099247 0  323455.6100285493 6019387.856515957 0  388994.7833819839 6019826.789191471 0  348897.6207366391 5998116.079250046 0  345456.3301153719 6035064.814295612 0  323455.6100285493 6042880.677247159 0  334124.3013408988 5990072.953472659 0  377097.8989316926 6018059.782440464 0  323455.6100285493 5995895.035784755 0  342871.8474798963 5980154.238874755 0  373596.9793292385 6035659.183886081 0  380149.979919221 6048753.88242996 0  376327.9292813152 6042294.581731233 0  329163.3548105369 6004704.843558955 0  350303.9432136903 6007093.032074522 0  383982.6552804571 6015912.664375832 0  345515.490569988 5988567.439252969 0  379019.812877927 6004678.052169549 0  365541.9137639466 6018750.691894444 0  349225.7781606728 5954782.59950515 0  352493.3399767278 5960815.406895458 0  363683.8130458911 5986976.225872464 0  386666.791301207 5975084.583584332 0  368937.6553346639 5966171.092344863 0  400003.9882214358 5968352.273777306 0  328776.0063842635 5992958.433193355 0  339958.4428758043 5999572.344589042 0  354577.7732363954 6012555.454074449 0  328609.6436549741 6048753.88242996 0  382053.0280278458 5988228.496807038 0  330708.6817934912 5978212.973348036 0  372084.7734679543 5978495.086505585 0  358568.2738174705 5971419.415228934 0  328931.2672829705 5998832.905089681 0  323455.6100285493 6031134.266881558 0  405920.1480513444 5972402.215053552 0  405920.1480513444 6031134.266881558 0  323455.6100285493 5972402.215053552 0  405920.1480513444 5960655.804687951 0  323455.6100285493 5960655.804687951 0  405920.1480513444 6007641.446150355 0  323455.6100285493 5984148.625419153 0  405920.1480513444 6042880.677247159 0  346648.7613474604 5960023.05127712 0  342415.3891593561 5966358.988213831 0  350507.6510228226 5971111.740321856 0  391773.9667214506 5994456.117700323 0  338875.8905424621 6026088.827345025 0  361429.1735454847 6010511.262533597 0  389395.7028803263 6025805.543023561 0  392895.6464692951 6043315.288173481 0  332846.8296575367 6019296.633131165 0  373337.4404588729 6009693.515402478 0  336544.3064612215 6043648.151399015 0  348610.2411382072 6019567.839754772 0  381943.4597763228 6042183.394750732 0  355630.0631288611 6028071.82801846 0  363941.5238882306 6035967.852698964 0  328179.67203552 6022271.326978176 0  401066.2857736665 5998807.415073814 0  344387.1099621175 6029612.545574771 0  393435.2235156003 5960233.556458537 0  400735.9970493424 6022675.638064924 0  393708.5772019727 6029179.837160029 0  400609.0696943338 5987857.851798974 0  361753.6614662939 6001152.171757337 0  400766.1144249197 6048753.88242996 0  353363.0524357285 6002630.165620538 0  343248.328463803 6018790.640008039 0  356419.8105951758 6043365.392189237 0  390234.385899412 6000759.497967276 0  368336.1168551637 6000220.532318851 0  328609.6436549741 5954782.59950515 0  387520.8298169724 6035372.992507171 0  400588.0280660195 6035823.299583429 0  329021.6598427091 6043194.252697862 0  393371.710206733 5983576.325812268 0  393638.9721728675 5973623.513063556 0  371727.9212466564 6017113.044457142 0  364687.2762977295 5959941.212693035 0  374995.9462927962 5960346.83186599 0  369841.9126663716 5954782.59950515 0  400766.1144249197 5954782.59950515 0  338917.7109078234 5954782.59950515 0  369841.9126663716 6048753.88242996 0  359533.8454135222 5954782.59950515 0  390458.0471720704 6048753.88242996 0  338917.7109078234 6048753.88242996 0  390458.0471720704 5954782.59950515 0  359533.8454135222 6048753.88242996 0  380149.979919221 5954782.59950515 0  349225.7781606728 6048753.88242996 0  339867.4956514095 6005339.817053361 0  333737.9460226952 6002130.523287664 0  336955.8140048417 6012008.440073739 0  377097.8989316926 6023232.32559834 0  371748.9790486701 6028016.629988787 0  338146.5171983215 5993298.164761053 0  355016.8390227688 6017610.913088997 0  393953.1528190996 6018968.416019509 0  335185.8133477239 5965142.63403323 0  328616.6041642396 5967263.80307608 0  380314.9487662361 5965460.362415641 0  354622.8993466098 6032976.142863722 0  328521.4725131759 6027215.026914048 0  334465.0783479523 6034070.534389696 0  328123.6212682287 6009699.206425843 0  381889.5169855529 5973936.741901617 0  359122.3484437474 6036790.002992895 0  386341.6533148278 5979963.279841923 0  400798.2159679119 6012477.871311778 0  388538.3765260249 5967461.292146791 0  340833.8784183678 5975728.708105717 0  355307.6239213505 5988552.151815021 0  362181.4274823388 5981261.937800813 0  353784.0322742948 5981044.538811012 0  358045.1698423899 5978741.391518688 0  328423.7350325213 6036912.015930048 0  366897.6876966125 6027277.723668203 0  347355.1745641421 5978532.307510624 0  376820.5060332146 5979033.270735624 0  349378.1778589479 6024378.632814493 0  327189.2282939323 6016451.253924556 0  338433.8773236172 6036753.902881841 0  350141.9760340559 5987605.90026687 0  363794.7083927878 5991713.491814731 0  350325.1285660182 6035273.515460094 0  382355.9358007369 5983507.499638396 0  327107.0747437811 59811
[...]
<PointData  Scalars="f_50-1"> 
<DataArray  type="Float64"  Name="f_50-1"  format="ascii">-3.4381133507148005e-28  6.1966133335205480e-27  1.3781174171278963e-21  -4.9067043119794851e-25  -2.4423048057681972e-16  -1.4305009434212353e-21  -4.4062311220755844e-21  4.9748637551497283e-22  4.6140464150460313e-08  1.2829042348005378e-23  -2.4863140242419643e-15  2.0617697447336260e-17  -7.7408523794302738e-24  5.1889233534028601e-16  -6.1789762324772102e-24  1.8364554717731786e-20  8.6279757898500767e-21  -1.4006866175558152e-16  1.2614343798702133e-11  2.9091072254233758e-10  2.6592012042602267e-14  4.6279923618293045e-23  4.4626989792404513e-22  -2.5684465923181675e-18  -6.9839872295083716e-22  3.3482878197159664e-10  -6.4254936465426063e-17  1.8746284545955218e-12  -6.4148619204410694e-18  -2.4173706979453742e-19  -2.6142166879533767e-16  -1.1026354600481642e-22  2.0592052994323198e-22  7.0137181178198836e-17  -5.6987680940582272e-19  1.2289103391830394e-18  -2.9310589186783356e-12  1.5840284768727377e-12  5.1978444275063588e-06  -1.0341927693039565e-15  -1.0794094884801365e-11  -1.1359974168514111e-17  2.5287651389556241e-24  -6.7229765648631052e-23  3.9837777074246687e-19  -3.9659127139100662e-25  -2.1795375988648158e-26  2.7718450483078547e-16  -1.0819217948102142e-23  3.1408753898907250e-17  -5.6552437751315021e-21  8.5627235557133343e-19  -5.0997869499047362e-18  3.2282204293128112e-15  2.2772443401370636e-11  8.3687188811387426e-08  1.2005399575212761e-12  2.0899502260105761e-20  -1.2031650396993979e-24  3.4731518191327614e-23  1.0362498405669690e-21  -7.7982557708379602e-21  -2.2291845430161865e-24  -8.8831758337450448e-22  -1.6177482907782769e-18  -1.2350238147916906e-13  -1.1221037632301869e-13  -4.6595143411462069e-15  2.7522665376302316e-12  4.7793737339584501e-14  -1.5032174987408092e-19  6.7703283287612746e-16  -1.7196087754691533e-14  1.1769849075814420e-20  1.3995157616421213e-15  -1.9751181257980661e-15  2.9768029214987086e-18  -1.5099919697128305e-24  2.2509580137373254e-18  3.0456764623061616e-21  1.7640876306358116e-23  3.2814295771030829e-09  -1.3544812566776601e-17  -2.7153565171771802e-13  1.3608372434877430e-16  3.5751080447192138e-23  4.5688402327893529e-22  -2.6887104435481635e-19  5.0777845418575493e-25  -3.1488164004277467e-17  8.5820939338797843e-21  -1.0012819537712598e-16  -1.1335690692439745e-20  -1.7417984754432958e-16  -1.8525184689181747e-17  9.2305702278213309e-17  -6.2489501427224905e-08  -1.3028778171710972e-19  -9.6829069289368546e-22  -1.1549748601699679e-19  3.0989733339810719e-15  2.2415495233163763e-10  -2.7672732480410318e-11  6.7373283270006627e-24  1.1977184209400042e-20  6.7974698200879200e-16  -4.6659455270797266e-19  -1.5754215585916782e-17  5.1032744326399249e-21  -7.4919767522393909e-19  -1.1258093514784141e-18  -3.0943423922528836e-20  7.0138488980137258e-14  8.0623715054063893e-17  1.9250005109003434e-19  -9.8003925722302075e-10  3.5661929910121723e-10  -2.5698184619658937e-23  2.5921408398180173e-13  1.5449006336156737e-04  8.6855898880876554e-17  -4.0320524993225727e-07  2.8308521617520242e-10  3.7771643914411842e-14  2.2560484859594591e-12  -4.9900952181567956e-23  6.7252820429367685e-16  -9.4703160146852846e-14  -1.1180567289775278e-20  -1.3208174929259583e-26  1.1662238107238997e-19  8.0486763485237095e-12  1.7482743574940307e-21  -9.2916768812869171e-18  -4.7317179705211189e-18  -4.2938253827478719e-21  1.0996875162438058e-19  4.8405014551265288e-20  6.1628009689986011e-14  7.6596430031784641e-14  -1.5027326831846965e-15  1.5065537511858580e-09  -8.6579977928330881e-13  1.9720145609485316e-23  2.4472480067467009e-21  -4.4588121844616215e-11  5.5527506332377900e-13  4.6947397388102654e-17  5.7535866041216114e-19  -1.6485252444134795e-21  -9.5074555043088473e-17  -4.9823625552159271e-13  8.5812823509708446e-28  9.7869405057080933e-09  2.1680334361225849e-21  -1.2446105111638024e-12  -1.3062237728670473e-18  -1.0812444922300237e-20  -3.3073287202581452e-25  3.1481981583390948e-18  5.4766840264259152e-22  -1.1609577581514496e-23  -5.1825955543076916e-21  -4.0798755759334304e-26  -2.9031316327308440e-17  2.9100704952835157e-23  -1.0375958940556362e-23  -5.8957637180175448e-22  7.6206008490519201e-21  -2.5966387901584936e-18  2.0882495865641857e-11  3.3607875910558219e-20  3.0800694023936515e-10  -1.6127722403902862e-18  -1.5799703357969539e-21  1.8030082491598650e-20  1.7804165216837834e-09  -1.2951668819182317e-25  -1.3535138599511262e-16  6.9528026374338970e-21  -1.4546196983854238e-16  -6.7649093212888002e-19  -1.9541658654782577e-22  -2.2359650905191711e-15  -8.3559736445128275e-20  5.9405609222155733e-19  2.5069842662927034e-21  -1.1861347181469323e-18  -3.1971426079949621e-15  2.3565135479729378e-07  -3.8870651669134265e-24  1.3227753873079913e-11  -3.2047034307057599e-18  -1.4368425664941383e-22  -3.5236936299310264e-12  5.7108979535122850e-05  1.5826903677782654e-25  -1.1609512236442732e-18  -2.0385507634510535e-21  8.1913688342442189e-27  1.7958626063319617e-13  2.9818967162955707e-15  -4.1651090177135744e-12  -2.6510549280295787e-19  1.2850772432723039e-19  -4.5240370342787210e-21  1.7776682291117503e-21  -7.3237381247996138e-24  -7.5296404364928405e-22  -1.7751262107460976e-21  5.6961731553163206e-23  -1.4386150108342757e-24  4.8790972474862893e-20  -8.9578303265498698e-23  -1.4543695827420708e-20  2.5394870796978113e-22  2.9289640432013092e-16  1.4629998066663829e-18  -1.0016822937890019e-18  -4.9336476595323643e-14  -2.7416115594389677e-16  -3.2439646995478278e-18  3.4556462765011612e-13  1.0554581421558722e-17  1.7897350263387686e-22  -1.2921956477830042e-23  9.3848545712370825e-18  -1.0908019729799640e-17  2.5860225338516060e-23  5.4388344903185683e-23  -1.0836628895746814e-20  -6.0278812656886630e-14  -1.3922059906908277e-18  -3.3174662691294748e-12  -1.0710383667769809e-16  1.7390955899848547e-16  -5.0556258126543988e-19  4.3804805765940149e-12  2.1286660953877963e-13  8.7523979225719812e-15  2.2452292087949527e-14  -8.4809202036875293e-26  -1.9869494417901859e-15  7.7647254001358981e-17  -1.2091182532213079e-12  -2.1943284733059912e-17  -5.9208328800867035e-22  -6.5458948310896512e-23  7.0839737819236399e-14  1.4820229640426204e-09  1.9139397008947297e-19  5.9645786833802742e-10  -5.9609929812534160e-22  6.9725276103581857e-20  -6.2872617541875790e-22  5.6110183950523194e-08  7.2883196785846411e-16  4.0691604674146122e-16  3.9430087682004999e-14  -9.9759967818045066e-22  2.1203287901414883e-20  -2.1253200290812082e-18  -3.0229419102931961e-22  -4.9589872222174031e-21  1.1438826221622623e-14  1.2455070509059260e-10  1.8896492251965994e-22  8.5582724803343505e-10  4.2110168109670381e-20  3.9371157491915801e-14  3.8434979869209991e-11  1.6339208877209019e-07  -2.3908502749179227e-15  9.1242633625402667e-20  7.9868454583185094e-14  1.4042821848259678e-15  6.4494714608040346e-15  5.6287459169714491e-15  8.8990485692354486e-11  -1.0489611760900877e-16  4.4527369778941334e-17  -7.9762508308722666e-17  9.2595058516826938e-13  2.1009985465231474e-11  -1.8180162089146507e-11  -9.2291205836565372e-21  2.9023358479598098e-14  1.1567421697599757e-23  1.8003113740753551e-19  2.9240633830227304e-14  1.3363642035203711e-16  -2.2455782641086934e-16  3.1155116125643379e-22  -1.4127418814944061e-15  -1.2293234309330143e-16  9.0393737556829954e-09  -1.7870089206780350e-18  -3.9950767866124104e-24  -1.1364583643197669e-22  7.8469110775546766e-12  -1.7250945114059276e-19  -2.1616961355962847e-18  1.2602122228551393e-23  -7.0748951643483987e-17  -2.9794644376558490e-23  -6.4192293000634210e-23  -1.1841734552436391e-24  -5.5251698146319518e-07  -2.8186698334314625e-21  5.0435863530897460e-11  1.8426642082597340e-21  1.7505233790355645e-24  4.7274444666705764e-20  8.2618211343988140e-18  7.1799698486317390e-18  3.1258185419653573e-19  -3.3100731633187926e-15  -1.2107535103143384e-17  1.0879560086353461e-19  1.1935883215865647e-19  -4.0153415321448850e-18  6.5966084623663053e-12  -1.3284037922214196e-10  -3.2038944446623717e-12  1.3484449728702156e-20  -3.7999322947674121e-16  -1.3979444110237814e-18  1.4350068210112437e-25  -4.4981221534403869e-23  -5.8462139705617685e-18  1.1870716264114992e-17  4.6958426361035559e-17  1.5838581169425696e-17  7.5010445213567723e-21  -6.2169938202428092e-20  -4.5706230708622502e-20  6.5394498903616677e-09  -1.2844561196083866e-15  2.0173699002120916e-18  -1.8164015663281331e-14  1.3622116190056910e-09  -8.0134273167739646e-10  3.0375427677565640e-07  8.8160322135620784e-07  -9.9369445494578667e-21  -2.1554775344326643e-12  -3.7605508281503258e-16  5.4457205204983733e-19  -1.4239592584195408e-16  9.0009493139192801e-16  8.4224094927315206e-28  9.8304919246815213e-26  7.1863135672219968e-13  -3.6733290790951288e-20  6.5254146442103841e-20  2.4966325225331912e-11  3.9688682499245378e-20  2.0486308142206693e-13  -1.3349772832561005e-20  2.3718658657427074e-14  1.0448575449739027e-13  -1.6593381998014403e-22  8.5149649291161955e-25  4.6259182432546001e-09  -2.6549999697361607e-13  -8.0346735993906954e-18  1.1504215258822275e-18  -4.4590090286881488e-18  1.4758250583270187e-26  2.4426957627539214e-22  -1.9698098252269414e-20  1.6957365802296552e-09  2.2388166653872476e-15  -1.1687389915768356e-20  -1.9121499760888638e-20  1.6267256374085717e-18  -7.0003585727578502e-19  -8.8809785505567296e-20  -2.4684055325597223e-20  1.0440158632156478e-13  2.1149945592530114e-12  4.0385810909266751e-18  -2.1975376082831808e-21  -2.8007021449009723e-18  4.6201667147564111e-16  -2.3808173584925991e-21  4.9948117076978268e-18  -7.7647187734975238e-11  1.6921959897063988e-14  -4.3497801630307334e-17  -9.5371962761811396e-20  -4.4292500318148986e-22  -2.0982543324466566e-24  -7.2129045989347186e-19  -1.1198388399380385e-10  -1.1519436536618233e-17  -1.7694133681389652e-19  -9.3225795470037760e-17  -6.6033472248593440e-18  -4.1324808067259133e-19  -6.5705404825638309e-17  -4.7680335834439283e-16  -1.3483613406895995e-21  -1.1794755719073778e-17  2.3902338571333526e-12  3.7578304826533666e-13  1.2096770030961293e-13  1.6022219989453576e-12  4.5012893002967799e-11  -1.1520796829881184e-14  3.0863208226544119e-15  1.0388847011452957e-18  -1.8026322453454988e-19  -1.0022217205958449e-11  6.1631926415045522e-25  2.2408501344809352e-10  -4.6514160226960888e-04  3.2366564882735209e-23  -3.6357219787776090e-20  2.0051317543103343e-13  3.0696551786220672e-17  1.5712165367706972e-12  -1.1686048410100041e-19  -2.9016647332395653e-21  -2.9660018165894769e-22  7.0290729280319638e-23  3.3378305236799764e-22  1.9992024784743511e-15  8.5252386702464773e-14  -2.2480423111829237e-18  -8.6534447292491777e-17  -5.3476052758955891e-21  6.6298768728481097e-12  2.6521234396953404e-12  -1.6572074144433557e-11  4.2002239063881491e-16  1.4895596685676576e-19  9.4685443014345848e-16  -5.7433708784355755e-14  -3.3622134883391793e-14  2.0441829991412834e-10  -3.8729922139678854e-15  1.5481745203055713e-17  1.4445912230835372e-05  -4.8943033995281617e-23  2.8760145781586490e-16  -1.3494092549064810e-16  5.6871945350379764e-14  -2.5638809648562552e-20  1.5664058071757917e-18  5.6754565848976347e-22  -1.6605253870533009e-05  2.7725955542224828e-12  -1.6471906624519897e-18  -6.9050873947856335e-13  -3.6369394507435135e-16  -4.4003566097272803e-22  -1.4110620547471025e-14  -8.0063765718036664e-19  2.9924110024303988e-11  -1.0987642779553751e-19  7.0617402097052763e-21  -7.4960836847833340e-19  -1.0249129576261126e-17  4.0443663164909871e-23  4.8008067906209795e-18  -1.0130774254203372e-20  1.9571385585218165e-14  6.4444064383486899e-17  -5.7144964666128292e-13  -6.5761325761225173e-19  -2.1109265339356598e-15  -1.2196106247775081e-15  4.3698345075988431e-24  5.5579459960742909e-06  -3.7520433631362516e-22  -1.0344367385155627e-16  -3.4895136419585561e-18  -6.3002384603471281e-14  3.1716797413556546e-13  1.3002682557834783e-20  1.3499864638206513e-15  -4.9177274862611775e-09  4.5228692241516073e-20  -8.3414064840096277e-18  -1.3167115104180962e-17  2.6000673021696303e-18  2.0484699090046982e-21  -3.1472982232640435e-17  4.9100941684566200e-11  3.5692765847685009e-05  3.6659726229749140e-16  -2.2652611551381988e-16  4.3801193601768350e-26  3.8170755711398358e-16  -4.6942953867077904e-16  -2.5811381745722175e-13  -4.7936754833566502e-21  -1.2248344050625428e-20  -1.4461768863008816e-21  3.2304734234813157e-13  4.3342502209964012e-24  3.1894044278456051e-24  -2.5366109091976440e-24  4.2193676384541926e-23  -8.1797362994349564e-14  3.1249286797959816e-12  2.5518106027131042e-14  -1.2124421724151340e-21  -1.8116888396140688e-14  4.2537144408309846e-19  2.3035944943313096e-14  -1.3150577836724902e-20  -1.1625768811120173e-11  -2.5072534185043677e-12  2.6258968164246605e-14  9.2876357807721483e-17  -1.3486995837971298e-15  -6.5441018356325896e-16  1.5560322266375168e-08  8.0800939533412976e-10  -5.8470173705731301e-11  -1.5198121539746322e-15  -1.2847354272598527e-20  -1.3727409986298438e-09  -2.8489515019764580e-22  5.3921528936335385e-21  7.1967084370629625e-21  -1.7506299122748786e-22  -1.2792898034960225e-20  -1.9783917596134854e-19  -4.1498840371086241e-24  4.8461571716289805e-13  -3.8003409983938414e-20  1.1721040021777195e-23  5.4780615115088097e-21  -3.7701655146974599e-20  -1.8384384924234989e-18  2.2063363496719137e-14  4.4201514303562054e-26  -5.4693352708547918e-26  1.8628753620494895e-19  -1.6169413588842299e-27  -3.8020523755078070e-12  -2.5651170135027446e-12  4.7870841089682831e-12  5.4313264599104398e-11  2.9585064325497982e-20  -9.6826842359608735e-12  3.7731899285116063e-24  -6.3797097987643284e-16  2.9335759810927445e-18  2.6472986205874588e-17  3.2916123529314074e-17  -1.2124939812366796e-17  8.1896835339610355e-13  -1.4609650535264213e-23  -6.3315620871265311e-23  5.8334297190166804e-21  1.0342377909991881e-21  7.9045571772468632e-22  -1.0566259400065217e-20  4.4530141649263566e-13  7.6601023273521172e-18  -4.5592063031324860e-24  4.0265825885938047e-17  -1.2785988828816441e-16  1.1795407287640613e-15  2.2229002698336666e-11  2.4806095862389985e-16  -1.1172862932844463e-21  1.5869797318349095e-21  7.8062759874225490e-22  4.4804343694417462e-19  8.4495918763941992e-20  -1.1034912709600253e-20  -8.8496195381452210e-22  -3.5476421407353397e-21  6.8624705866706794e-18  7.6975980482328193e-18  1.1504329224005410e-21  -8.3888857762876502e-06  3.5248603971447333e-08  -3.7501954961917825e-16  4.1153157533270861e-23  -3.7600265370046540e-21  4.3751128456633889e-20  -1.3640578455988834e-20  -4.0096283204605849e-24  -2.2220189351469065e-21  1.3061164988755899e-25  2.2361471001658340e-10  3.1308146403582154e-08  -8.9361342031916540e-20  1.1205717700965809e-18  3.7903078322168545e-17  -3.7730032395939869e-22  -1.4901913316075059e-23  2.0380451024975451e-18  -8.4305123813404963e-13  -3.9353995694727621e-14  -4.0454923324650212e-12  1.9316544671593379e-16  -4.0339243816002195e-12  -2.3679917467099351e-10  5.2226583535430174e-09  -4.0063613912863447e-17  5.7973149760140112e-19  -1.0362352921547406e-19  8.6287798809327781e-20  -3.1021163897211428e-20  1.1688820589566336e-21  3.4609753894192990e-18  -8.9986406746361817e-23  -1.2301123362574182e-23  -5.2159085566596316e-18  -3.3675062610876488e-21  -2.1836143199573946e-20  -2.6015342079894674e-25  6.0090987523865196e-23  -5.0987734373396848e-17  -5.2301586565525130e-23  -8.6041506879734461e-17  -7.9174721031303710e-19  4.7171413769754384e-18  4.7461951096780559e-20  -1.1232821474107384e-13  -3.3585754669242974e-17  6.8861622643685120e-16  -8.2904656510664687e-19  -6.7069822913295684e-23  5.0486831308819591e-23  -1.3049849539492074e-22  2.0498532333231916e-25  -2.9044136062018335e-24  3.5533317699262738e-25  5.7864469811904103e-18  -2.6670873631378865e-15  -4.3759184154071472e-20  7.8312457933259039e-19  2.6864176750521138e-13  6.6013247930492869e-14  1.8322192381730929e-17  3.5462165672334076e-17  8.4606277776565471e-16  -6.9044437820252504e-17  5.1076110033294300e-17  -6.6619168523104396e-21  -5.9342015096012976e-22  2.4590842336685864e-19  -2.0032183252919157e-19  -1.3154775107604989e-20  2.2351507436432767e-21  -3.0148973813770991e-10  -6.0303742801342677e-16  -1.1517210703729572e-21  1.9277984870604318e-11  2.6273440449804944e-18  -3.6249334098136650e-17  5.6578115578640392e-19  1.1515155546896229e-15  1.3321503541813105e-08  5.1554997134494671e-27  -6.0579098724575489e-27  4.4857768725431249e-13  1.5759876773783460e-25  2.5332709622973728e-20  -2.2676412713226810e-10  -3.1267503364033017e-07  2.5313275363286199e-08  4.4393881104790953e-22  7.8047443274572413e-22  1.5106660877941889e-08  -2.6015773152662580e-14  7.2034005150192737e-23  1.7900376283523289e-07  2.3272603451160878e-21  1.2659209971164496e-26  -5.8034592468659514e-18  -9.5966058114755808e-24  3.2130602991317338e-20  8.7553966853787297e-17  2.3801797264916450e-21  -3.3286078578558734e-16  -4.5859362271123742e-22  2.7131779166336196e-11  3.7928340077693782e-16  4.8034161364323687e-07  2.5537165820998165e-14  2.5398725365987953e-21  2.8637507503931670e-10  -1.9936400031962715e-18  -8.4246430015162558e-16  -3.1246199149235483e-22  2.3924124789084440e-17  8.5354324609330708e-21  7.4620618751351559e-23  -1.6937275526275628e-15  1.2802154934371645e-15  -2.4858950259415403e-22  -1.1009983978592325e-14  -1.1298322038901390e-11  1.2841513624385906e-12  5.8180464827604771e-11  -3.4037259110781416e-22  1.8929350553155258e-19  3.6571232938626430e-17  -5.7112084776009407e-18  -1.1610361644592528e-11  1.1925001209853876e-19  -2.0196017710487626e-20  1.3236627588084186e-19  9.2583010676158753e-19  1.1671658845648543e-17  4.7012260772151658e-21  -1.0627928884099533e-21  1.4842476103381000e-06  1.0285033358492657e-09  6.2414212453391238e-12  -1.4769078469013600e-11  1.6245212566657273e-12  3.3347411339666685e-11  3.3560966547339412e-12  7.7201577026460864e-17  1.3591005185294763e-18  1.1540501653057143e-12  4.2716442280297744e-22  -1.7502227135305764e-17  -1.1378329703735962e-19  -9.2919404624109101e-14  4.5747000346044020e-14  8.8939132519526894e-14  1.1980657320523157e-11  3.9069178601166523e-23  1.9057586962771122e-23  6.2365156757563778e-15  -8.4865757595434937e-17  9.4256950774633105e-18  1.8954711119155327e-21  -1.7363360116682573e-21  5.1771300378389492e-16  -1.0220146262173433e-14  -6.9297225395810959e-22  -4.4899853016861703e-23  4.5640972259965714e-20  1.2556169472094716e-15  -6.8367878747028777e-16  -4.7057980367134878e-16  4.4103266531123852e-16  1.0823834561525654e-13  4.0364367181289674e-16  -4.5203799973232767e-13  -1.5657265875848446e-25  -2.3081142726306084e-22  -1.5445966098597309e-21  1.5508818222836941e-17  9.0757361773834984e-18  -9.2466054761646713e-23  3.2412692077185173e-24  2.7400966407734764e-24  -1.6707039074524823e-23  -3.0228331690414181e-15  7.4964428822049606e-16  2.3807682153371804e-17  -3.2140201025984533e-14  -1.1648086325011023e-13  5.7814682090629145e-15  -3.7231533394611831e-21  1.7566832950591921e-13  2.0892809793519547e-19  1.4560048105483905e-12  -1.3642269842994065e-23  1.2112524589231404e-19  3.5957091607912128e-20  -6.8979872776510096e-19  1.7541606024587554e-20  -1.0970179111961344e-18  -8.6420050428027929e-18  -2.0190974417998465e-18  6.5528298527000071e-18  -7.2829640751277601e-19  -6.6060413776879185e-17  -1.0276691657469489e-23  2.0475250093798778e-28  -6.2451115916680899e-21  -5.7612343713220988e-20  1.8353740063681209e-24  -2.0435549362924822e-21  -1.9619262807691231e-22  -2.1066857629438410e-22  3.8653950466606815e-21  3.3866432098972502e-21  7.5562463278441983e-21  -1.9284330717343290e-21  9.2825000051146970e-21  -1.2177113029423243e-25  -3.3755660520407521e-22  -9.9061417162617106e-24  2.2642975118396859e-25  1.5410271599115762e-21  4.2552888358292955e-07  9.4177190685736203e-13  -1.9714837081698729e-14  1.8909595023324911e-16  -1.8269881828503381e-22  -2.7226556065151294e-22  3.6701424563446626e-20  -4.6874792552835180e-26  2.4823147258545965e-11  -1.5339035440241920e-16  4.1900881068109225e-22  -2.2078170884281556e-11  -2.3216014012655718e-23  -1.1