<?xml version="1.0"?>
<VTKFile type="UnstructuredGrid"  version="0.1"  >
<UnstructuredGrid>
<Piece  NumberOfPoints="3002" NumberOfCells="5870">
<Points>
<DataArray  type="Float64"  NumberOfComponents="3"  format="ascii">323455.6100285493 6048753.88242996 0  323455.6100285493 5954782.59950515 0  405920.1480513444 5954782.59950515 0  405920.1480513444 6048753.88242996 0  405920.1480513444 6001768.240967555 0  323455.6100285493 6001768.240967555 0  364687.8790399469 5954782.59950515 0  364687.8790399469 6048753.88242996 0  364687.8790399469 5996367.117560402 0  323455.6100285493 6025261.061698757 0  382226.6271443229 6022560.499995181 0  405920.1480513444 5978275.420236353 0  323455.6100285493 5978275.420236353 0  353897.8957397301 6022560.499995181 0  344071.7445342481 5954782.59950515 0  385304.0135456456 5954782.59950515 0  405920.1480513444 6025261.061698757 0  354379.8117870975 5975574.858532775 0  381582.8168806895 5978840.396198289 0  384950.2598624413 6001768.240967555 0  344643.0480768835 6003429.02033719 0  344071.7445342481 6048753.88242996 0  385304.0135456456 6048753.88242996 0  339717.0321562298 5986078.187627405 0  337515.036058786 5969821.016310448 0  368062.2614420265 6013076.224998265 0  368062.2614420265 6032044.774992097 0  393987.6142659165 5988729.699941677 0  405920.1480513444 6013514.651333156 0  392856.2821527076 6034589.119828064 0  393514.9611654527 5968369.338068204 0  339399.8087404341 6032061.482581838 0  323455.6100285493 6013514.651333156 0  374995.9462927963 5965504.865595459 0  354379.8117870975 6037976.901948514 0  338123.9088969378 6017031.529131207 0  367397.3120126425 5982072.559192053 0  351882.5752379905 5991998.990225234 0  376945.425450199 5991232.708824487 0  392265.0061656896 6013300.936254065 0  357029.7426706699 6006608.947964352 0  380093.6207558212 6036880.127749795 0  323455.6100285493 5966529.009870751 0  405920.1480513444 6037007.472064359 0  405920.1480513444 5966529.009870751 0  323455.6100285493 6037007.472064359 0  333763.6772813987 6048753.88242996 0  405920.1480513444 5990021.830601954 0  323455.6100285493 5990021.830601954 0  362879.3643765316 5966837.319094267 0  348367.6438548031 5965604.161682394 0  334493.1989038612 5996935.948935225 0  395068.5043068817 6023875.372615605 0  348216.0324377587 6013504.844950221 0  379305.9090074943 6011603.390019651 0  372523.5158233726 6003480.000732267 0  395435.2039568929 5999384.346358113 0  395612.080798495 5954782.59950515 0  333763.6772813987 5954782.59950515 0  395612.080798495 6048753.88242996 0  374995.9462927963 6048753.88242996 0  374995.9462927963 5954782.59950515 0  354379.8117870975 6048753.88242996 0  354379.8117870975 5954782.59950515 0  335074.5981535012 6007206.680367459 0  391925.2695590468 5978591.908877409 0  371969.1707190623 6022560.499995181 0  383872.162544519 5969415.106147043 0  358038.7139835292 5984533.09712744 0  369699.869182786 5973102.2359358 0  369841.9126663716 6041099.453006387 0  343176.7440329155 5994428.220622956 0  362933.5332293962 6024385.235173292 0  330640.1760208776 5984148.625419154 0  348684.7494355051 5983110.856817525 0  399094.9690929834 6007537.420809742 0  345447.6324516311 5974162.84917082 0  332859.7749513451 6039150.972778062 0  344517.044630671 6024057.945416138 0  332973.1214415312 6025037.914505113 0  341428.0126373461 6040493.820728126 0  385874.264691618 5992757.40885039 0  350337.3662538711 6030387.535304286 0  359887.2373602368 6016186.250094838 0  377097.8989316926 6029115.217702097 0  338917.7109078235 5961484.016839475 0  329495.5261590715 5972402.215053552 0  336644.7280634616 5978216.610794215 0  330688.6715098422 5962480.256438018 0  359899.8039476132 6031963.415584587 0  399746.255941904 6030426.523907755 0  385511.6875144855 6030368.508996127 0  387377.735783329 6040763.821024337 0  398832.192399829 5974431.100387635 0  387992.9498994246 5962432.032572681 0  405920.1480513444 5984148.625419153 0  364925.7641745284 6005782.953640081 0  361769.877068089 6041226.651684469 0  398452.9199001931 6040850.732439541 0  398946.6205243983 5962252.502309519 0  362305.5577564609 5975984.89789681 0  356822.8065216601 5998470.186307689 0  386900.7115926162 5984820.732438302 0  329528.0119279922 6032067.230024892 0  331139.6939744562 6013813.572928222 0  398457.5876798834 5982541.698799337 0  405920.1480513444 6019387.856515957 0  398685.5166750694 6017257.578706384 0  348587.9424884976 6042755.309150081 0  369841.9126663716 5960143.732550304 0  380149.979919221 5960143.732550304 0  359533.8454135222 5960172.384722514 0  377147.8814772839 5972649.581024994 0  341756.3455763521 6010124.092444684 0  355615.8176864882 5966311.193813809 0  369144.4338274571 5989807.770003954 0  375185.9047422862 5983510.422041401 0  323455.6100285493 6007641.446150355 0  391856.7960121195 6005888.565703365 0  371978.0245217044 5996361.134308098 0  405920.1480513444 5995895.035784755 0  378877.1880032702 5998073.745937059 0  359056.6617417652 5991643.489540118 0  399278.8743430426 5993436.466134224 0  386116.8775939071 6009922.097099247 0  323455.6100285493 6019387.856515957 0  388994.7833819839 6019826.789191471 0  348897.6207366391 5998116.079250046 0  345456.3301153719 6035064.814295612 0  323455.6100285493 6042880.677247159 0  334124.3013408988 5990072.953472659 0  377097.8989316926 6018059.782440464 0  323455.6100285493 5995895.035784755 0  342871.8474798963 5980154.238874755 0  373596.9793292385 6035659.183886081 0  380149.979919221 6048753.88242996 0  376327.9292813152 6042294.581731233 0  329163.3548105369 6004704.843558955 0  350303.9432136903 6007093.032074522 0  383982.6552804571 6015912.664375832 0  345515.490569988 5988567.439252969 0  379019.812877927 6004678.052169549 0  365541.9137639466 6018750.691894444 0  349225.7781606728 5954782.59950515 0  352493.3399767278 5960815.406895458 0  363683.8130458911 5986976.225872464 0  386666.791301207 5975084.583584332 0  368937.6553346639 5966171.092344863 0  400003.9882214358 5968352.273777306 0  328776.0063842635 5992958.433193355 0  339958.4428758043 5999572.344589042 0  354577.7732363954 6012555.454074449 0  328609.6436549741 6048753.88242996 0  382053.0280278458 5988228.496807038 0  330708.6817934912 5978212.973348036 0  372084.7734679543 5978495.086505585 0  358568.2738174705 5971419.415228934 0  328931.2672829705 5998832.905089681 0  323455.6100285493 6031134.266881558 0  405920.1480513444 5972402.215053552 0  405920.1480513444 6031134.266881558 0  323455.6100285493 5972402.215053552 0  405920.1480513444 5960655.804687951 0  323455.6100285493 5960655.804687951 0  405920.1480513444 6007641.446150355 0  323455.6100285493 5984148.625419153 0  405920.1480513444 6042880.677247159 0  346648.7613474604 5960023.05127712 0  342415.3891593561 5966358.988213831 0  350507.6510228226 5971111.740321856 0  391773.9667214506 5994456.117700323 0  338875.8905424621 6026088.827345025 0  361429.1735454847 6010511.262533597 0  389395.7028803263 6025805.543023561 0  392895.6464692951 6043315.288173481 0  332846.8296575367 6019296.633131165 0  373337.4404588729 6009693.515402478 0  336544.3064612215 6043648.151399015 0  348610.2411382072 6019567.839754772 0  381943.4597763228 6042183.394750732 0  355630.0631288611 6028071.82801846 0  363941.5238882306 6035967.852698964 0  328179.67203552 6022271.326978176 0  401066.2857736665 5998807.415073814 0  344387.1099621175 6029612.545574771 0  393435.2235156003 5960233.556458537 0  400735.9970493424 6022675.638064924 0  393708.5772019727 6029179.837160029 0  400609.0696943338 5987857.851798974 0  361753.6614662939 6001152.171757337 0  400766.1144249197 6048753.88242996 0  353363.0524357285 6002630.165620538 0  343248.328463803 6018790.640008039 0  356419.8105951758 6043365.392189237 0  390234.385899412 6000759.497967276 0  368336.1168551637 6000220.532318851 0  328609.6436549741 5954782.59950515 0  387520.8298169724 6035372.992507171 0  400588.0280660195 6035823.299583429 0  329021.6598427091 6043194.252697862 0  393371.710206733 5983576.325812268 0  393638.9721728675 5973623.513063556 0  371727.9212466564 6017113.044457142 0  364687.2762977295 5959941.212693035 0  374995.9462927962 5960346.83186599 0  369841.9126663716 5954782.59950515 0  400766.1144249197 5954782.59950515 0  338917.7109078234 5954782.59950515 0  369841.9126663716 6048753.88242996 0  359533.8454135222 5954782.59950515 0  390458.0471720704 6048753.88242996 0  338917.7109078234 6048753.88242996 0  390458.0471720704 5954782.59950515 0  359533.8454135222 6048753.88242996 0  380149.979919221 5954782.59950515 0  349225.7781606728 6048753.88242996 0  339867.4956514095 6005339.817053361 0  333737.9460226952 6002130.523287664 0  336955.8140048417 6012008.440073739 0  377097.8989316926 6023232.32559834 0  371748.9790486701 6028016.629988787 0  338146.5171983215 5993298.164761053 0  355016.8390227688 6017610.913088997 0  393953.1528190996 6018968.416019509 0  335185.8133477239 5965142.63403323 0  328616.6041642396 5967263.80307608 0  380314.9487662361 5965460.362415641 0  354622.8993466098 6032976.142863722 0  328521.4725131759 6027215.026914048 0  334465.0783479523 6034070.534389696 0  328123.6212682287 6009699.206425843 0  381889.5169855529 5973936.741901617 0  359122.3484437474 6036790.002992895 0  386341.6533148278 5979963.279841923 0  400798.2159679119 6012477.871311778 0  388538.3765260249 5967461.292146791 0  340833.8784183678 5975728.708105717 0  355307.6239213505 5988552.151815021 0  362181.4274823388 5981261.937800813 0  353784.0322742948 5981044.538811012 0  358045.1698423899 5978741.391518688 0  328423.7350325213 6036912.015930048 0  366897.6876966125 6027277.723668203 0  347355.1745641421 5978532.307510624 0  376820.5060332146 5979033.270735624 0  349378.1778589479 6024378.632814493 0  327189.2282939323 6016451.253924556 0  338433.8773236172 6036753.902881841 0  350141.9760340559 5987605.90026687 0  363794.7083927878 5991713.491814731 0  350325.1285660182 6035273.515460094 0  382355.9358007369 5983507.499638396 0  327107.0747437811 59811
[...]
<PointData  Scalars="f_39379-1"> 
<DataArray  type="Float64"  Name="f_39379-1"  format="ascii">3.6930658050754902e-22  8.5689304123978283e-21  -2.7052274692662007e-17  1.3666577375514023e-20  1.7783995670276888e-10  5.6504319153839081e-15  8.8902888835650798e-14  5.7608742031251632e-17  2.1114665982663428e+00  -1.9482622009443904e-17  -3.0704687753892514e-10  1.5808813511478522e-11  1.4083467710886614e-17  9.2927053706624709e-09  5.0483702994150070e-18  1.6658416136588528e-13  3.4597246890304886e-13  -2.6301447596512847e-10  5.6866368723345924e-05  1.0855212057766810e-02  -2.4823191960431662e-08  -7.5092036319918684e-18  -7.2153166623295561e-18  1.9463972286890243e-11  1.2868506839085785e-14  -8.9457602494582715e-05  -4.9904682353816797e-12  5.3916460339454749e-06  1.4099844719595389e-11  2.8355874852123744e-14  -6.1614581762847890e-11  -3.6124167775523210e-15  -6.7395694582372754e-16  4.2194623409540361e-10  1.8861173178781136e-12  1.3899038378218062e-11  -2.9453035551994370e-05  1.2343915962635651e-05  3.7843685066305994e+00  2.2899166399985848e-07  6.4271730123728011e-03  2.7620042392394825e-13  -1.5779133753465296e-18  3.8836884800530794e-18  6.2768389879722288e-13  2.1429174304450199e-18  -2.0739553851354603e-20  1.5101998126270183e-10  -1.6330831242877999e-15  -1.5857649747558553e-10  1.7342891578740723e-13  3.2903537385914915e-11  1.0706854981562919e-12  5.4171746107837212e-09  -6.4256155478023804e-06  1.8746528992005749e+00  9.1239969939764738e-06  7.8788033273763174e-18  8.1989287232950626e-20  -5.1554087119525389e-19  -3.7663492712378280e-18  1.4525648602148756e-14  6.1164662187217357e-17  4.0473680189120387e-16  1.8160765371609779e-10  -3.8869372739985626e-08  2.7567316026234095e-08  -1.1161671715964101e-09  5.6176012475261186e-06  -1.5751425010969235e-08  4.0204379227181946e-14  -9.4352919546443307e-09  -4.5575478857201321e-09  1.8218513670017983e-13  1.1249560929876920e-08  2.5257280661794755e-08  4.4820034422350705e-11  5.5423086167018371e-19  5.4722290837193094e-11  4.1043952724292572e-13  -2.1828339436411246e-16  -8.1539727556833828e-03  5.3880839364223268e-11  -3.3130369781712777e-06  3.8124362009086467e-10  -1.5384885327163103e-16  -2.6720734939383735e-16  4.5859775947236498e-13  -1.6662727535219864e-18  -8.7031694645538653e-12  -2.1007894737864693e-15  -1.1030689448486827e-12  6.7876333338639113e-16  -3.8953666257343244e-11  -1.0222053155498649e-12  2.8749476726647430e-10  2.0700014798974022e+00  7.2362476769189787e-15  -1.6212296850640162e-17  -1.3073253687000728e-14  -5.2298096070571695e-08  9.2290578548600392e-03  8.1494361108305180e-05  -8.2829445798362990e-17  2.8901335128819796e-13  6.1302880253149463e-09  2.1177073247224768e-12  2.1490267892959460e-11  -1.3155755421207364e-15  1.0549432538662035e-11  4.7017772401798920e-14  8.8607008563192248e-13  1.0291675896429053e-07  -2.6927305578936156e-10  -1.1978092660497282e-12  -1.2604289226556074e-02  5.3302888070394672e-03  1.8123018622660467e-14  -3.0149041512990934e-07  5.3029949388718460e+00  6.8738139027597976e-10  2.6371789121829066e+00  8.1406930797024257e-04  2.2686933954427974e-07  9.1642101242991127e-07  2.5314178468773945e-17  -2.3295394919098151e-10  2.9752620984064912e-06  1.4583627366678285e-13  6.9464535270964930e-20  3.4290338291162024e-11  9.8346840729724852e-06  1.0604547400978611e-17  1.4980276255627894e-11  2.3467721370107365e-12  4.0728266038386493e-17  6.5356636751273979e-14  1.1265181617376743e-13  1.5072590518078303e-05  1.9753437188309961e-07  1.7017295973616255e-09  8.3360137178891854e-03  -6.4131710735652074e-07  -6.6149341000456778e-17  -6.4796768509307567e-15  -2.8535271237729143e-05  1.5161268851088302e-06  9.2962853313158916e-11  2.0226157978345620e-12  -4.7442516037683544e-14  6.9861220605378801e-10  -1.2889716733899591e-06  -1.8499300061934594e-21  5.8486835109797294e-03  -1.1548707073131104e-15  -3.3629653268902071e-06  3.4073708644136282e-09  -1.0139419448789655e-13  6.9155439669019442e-19  5.1162618826775953e-12  4.1764193495372119e-16  8.8260668988310914e-18  1.3279166273619872e-16  2.7534847634267574e-20  3.6974670828762829e-12  2.1299287269166311e-16  -5.0865893490962547e-20  -7.7961992447927651e-16  9.0702470478611155e-14  -1.7445748139305800e-12  1.2565021291245434e-04  3.6354682539648849e-13  7.3111941986867424e-04  2.8863852393432996e-11  -1.8950463947927418e-17  4.2904256385754507e-13  8.5720512216171454e-03  1.7470816638584312e-18  1.2295073023749982e-08  -1.5941000346917305e-15  2.4994029719920776e-10  3.0667919364290737e-13  -4.7513187303491489e-16  3.6681239602718217e-09  3.1177987923754878e-12  1.9000165626558248e-12  2.1812728134379409e-12  1.0024800011636216e-12  -3.5464598221346484e-10  1.7697685536274244e+00  -4.0764882527486711e-20  -6.4523918299678491e-05  1.1093186791843609e-10  -1.6397720588209794e-15  9.0943433802484453e-05  6.3592026699643096e+00  1.4993681619210132e-20  5.2556656703331004e-14  -6.5565024827889786e-17  6.3809784256946794e-20  9.2889102013325646e-08  8.0337989452202086e-09  -5.2038806931216822e-07  4.9863387554695856e-12  7.0102621558073262e-12  -5.3089800515351806e-15  2.0073995859345022e-16  4.8706683397677391e-18  1.7318578826924697e-16  2.3059145903106104e-15  2.6521290980364729e-18  -4.7131024100812607e-19  4.7218475013748605e-14  1.6990275973867039e-17  4.2570132720307905e-14  -4.4970685816362187e-17  -5.6670363383997047e-10  1.7068605545593283e-11  2.0535926406056473e-10  -4.3396085012367173e-09  3.2563467774497129e-10  1.3427785216474338e-09  4.1576653844643249e-07  -1.9492256288036699e-11  -1.6020887754220164e-17  1.6623764553094559e-17  9.5992399565882508e-11  2.3477604613620866e-11  -1.7883800246368664e-16  -3.4529442992957230e-16  8.5011845295440302e-13  8.6493232686867924e-09  1.3233365342819995e-12  -2.7681477528781671e-06  1.6379248779633760e-09  6.5617082510660184e-10  2.7477735836935609e-13  2.7473357490443476e-06  -4.6447338207559914e-07  -2.2382372606231901e-10  1.8790215838675619e-09  -3.0565788847489003e-18  -6.6873161747359644e-10  9.5825763140946153e-10  7.6590463830050726e-05  9.5622608371690675e-10  1.0703299998930788e-14  4.7345744144238973e-17  2.6145331146111367e-08  -2.5763788620279961e-03  -1.1796144301307896e-14  7.3422108821234993e-04  4.7724815254571661e-16  1.6687030886246919e-12  -1.1731417910898167e-14  8.3955482924136837e-01  8.2469558234869350e-09  -4.4363563203383515e-09  -6.2706667154716953e-07  -1.5351847582548619e-16  7.2650562840118990e-14  -1.6620628142411165e-13  3.5813396830198389e-16  3.5689104856021349e-15  -1.6098553389928015e-08  3.8493381079844966e-04  -1.4845066889031234e-15  1.6641628802556756e-02  7.9719763882430167e-12  -3.4592795390544765e-08  -1.7385959431787825e-05  2.8984437883797485e+00  1.6027855384022513e-08  2.8607003313672792e-12  3.0160879542677790e-07  5.4714044251440677e-09  2.6926343832590963e-07  2.6239629306328932e-08  4.6943328588954651e-05  2.8450162298065082e-11  -3.7672720487268130e-10  -4.1544709336219323e-10  -1.3184091282998982e-06  -5.0381093741728448e-05  5.3308224304031062e-03  -1.2314383775817412e-16  -1.4954560122347419e-09  -1.5193504665651466e-17  1.6073857494520557e-12  3.9174755245596730e-08  1.2857883536332884e-10  9.0648683251723417e-09  1.1251912057200980e-17  -5.6880624257309781e-11  1.2880241160034104e-13  2.3381524760116590e-01  -8.2641383903633300e-14  -3.2876037274442082e-18  -4.0126587144739446e-17  4.0885387074117657e-04  1.3969269465659831e-13  1.5412498595360732e-12  1.8517480256462006e-17  -1.3646708729498202e-11  -9.3965788313989963e-19  1.6189161610641301e-18  1.5080518542932568e-18  2.7816662697214074e+00  5.0912543966265289e-16  -9.1596515438532554e-03  -2.0149597130295978e-15  9.9140896560673861e-20  3.1057173672802875e-14  3.6547035482113819e-11  2.2139211540349558e-11  6.1577754164601817e-13  -7.9330371298059389e-10  -1.2791544102475952e-12  2.5532735536186775e-13  2.3072248766074438e-13  4.1837093080692441e-11  9.5893333736452033e-05  -4.3602526683358903e-03  -7.1798884601569557e-04  -2.4742822988889563e-16  1.9259992545254750e-10  1.1634372951098122e-13  -5.1532697340662242e-20  -6.8061466419340165e-19  2.1336135348559431e-10  6.0123318947067502e-11  1.3641787431153179e-10  -1.2022031097528945e-11  2.1381897711637313e-13  1.0237894658392663e-13  3.0190861409411147e-14  1.3052557268724752e-01  -3.7028932968404382e-10  6.0511269150734535e-12  -7.3197233054407615e-08  -3.1839020841458944e-03  1.1496282555964164e-01  1.8251275801817259e+00  2.4560538112854235e+00  -2.1013801207999509e-15  -3.9973889360877535e-07  -1.0369952291619627e-11  1.0367491162270949e-11  4.0860690168966992e-12  9.1913116417902311e-09  2.0521945242712470e-21  -4.8343015802702390e-19  1.0515155850558194e-05  3.9988229863497668e-12  9.4633623456078235e-13  4.5374861211620681e-04  1.1734770595432417e-13  6.3622247360361372e-07  7.5016132618121027e-17  3.4201986578899903e-08  8.7204488074501539e-08  -5.1903059135300755e-16  -2.8834740880304225e-18  9.7278981089482606e-03  -1.2113206871785652e-07  -1.9157105155144453e-12  2.6612096386173573e-11  1.7668715814526775e-11  1.5713207487306440e-19  -1.6716253256546115e-17  6.6417067101140930e-16  -3.1265186239442717e-03  3.8868317209849671e-09  1.9806111442930202e-13  5.1033556943397458e-14  -6.4175365134172889e-12  6.8356339226052367e-11  5.0564284743108548e-13  1.9739987768592007e-13  5.8040526299651721e-06  3.3850227948632317e-06  -2.7000530486599189e-11  -7.1667459291301084e-17  2.6223155496050212e-12  -1.1358287276164296e-09  -6.8147239075361595e-16  1.4304465731709366e-11  2.6286647305433870e-04  2.3027183771334765e-08  2.9759441777549591e-11  9.4657400820721128e-13  -3.2954196055066068e-15  4.0943584722816784e-19  -8.3384502927769020e-13  -5.1159978225493796e-05  4.0569210512130141e-09  1.5567156256757163e-11  8.7471196382987955e-10  -1.1687662604853809e-11  2.8405926427553812e-11  -1.4135978462337912e-10  -1.0000195317712839e-10  1.9975909248979995e-15  2.9962085856580419e-13  2.9888376477700905e-06  2.9091687201817108e-07  2.2929910550712024e-07  1.3131846535006258e-05  9.5087687007740782e-05  1.0107394940684200e-09  1.4780046585537917e-07  1.4135550033346856e-12  -9.0810703981959735e-15  1.6438317965988917e-04  -1.0883227153330558e-17  1.3472390269764635e-03  5.1314248523283545e+00  -8.5206978302676190e-18  1.0955868818176294e-13  3.5758757080793931e-06  1.5435538634829419e-11  -2.0590171369740701e-04  7.3998983637766098e-14  5.2420640097847185e-18  -7.4154400032916544e-17  -6.0231557997250383e-17  1.6679412579695426e-15  1.2206224147111953e-08  2.0941515481538383e-09  7.6738814001101726e-11  6.8523074957409158e-10  6.1329974918563894e-16  -1.0890055856396328e-06  -2.8222919977553449e-07  -2.4435102047263559e-06  -1.8365080674600772e-10  2.2033997280646003e-12  2.6957045484967336e-09  2.3139846971247070e-04  1.0630958462483168e-05  -4.8302607852499684e-05  4.1604129909663074e-09  8.0282205514515433e-11  4.1797122224968790e+00  -5.4987336717744302e-18  -5.2189502904919250e-10  2.0684963258897067e-10  3.5489166072705275e-07  1.7377475575112781e-12  2.7892208165343486e-11  -5.9435666192675230e-16  5.2334821607160968e+00  1.6245300981386605e-05  -2.8066103630065403e-13  -1.1384178781893051e-07  -4.0493038445528657e-11  1.5420407699662460e-14  -4.0189025060315998e-09  -1.5542219521683834e-12  9.9399224501278853e-06  8.6038733808548904e-14  1.3142400917753332e-13  4.2426087609725209e-12  4.0043938213094111e-11  -2.5020073650929199e-17  2.5842814339418323e-11  6.9004681467778914e-17  5.4958368978162283e-08  -9.3141335127893147e-10  6.9581182951517065e-06  4.3133212904233849e-14  1.8887754513032599e-07  4.5676532436077178e-11  -1.4299305391469471e-17  4.4821033239169950e+00  2.5565644805789327e-14  2.3249522608626647e-09  1.0427870102954301e-10  4.0585695990529860e-08  -1.3874716738745091e-06  1.0162553825455634e-16  1.1319807953385507e-08  7.0007230087733524e-04  1.8949626387785754e-12  1.2373856668860872e-09  -3.1878694686880480e-12  5.9860304916361720e-12  4.8646901798442759e-14  -2.8628002545136189e-12  4.4830994417347137e-04  5.4096329050286593e+00  2.7534216856821183e-10  1.9194943092307720e-10  -1.3206356701770188e-19  -3.3354172535095138e-10  1.6733286713972806e-07  5.4199361904856952e-06  2.0002436344363353e-13  1.6545730656219900e-13  2.0067193844214724e-15  6.6178569998428719e-07  1.6162180732246422e-17  -1.2942686308470131e-17  1.5199872070368756e-17  5.6676915871956781e-17  2.0413540405345702e-07  1.2055459502682602e-05  1.1596549555708298e-07  5.6079250686483599e-14  5.5153165450735518e-06  -1.4036317705524701e-12  4.0266354046509336e-07  8.4120698333627409e-13  4.2883568253433409e-04  -1.7420463464330676e-06  4.0290575308261018e-08  1.1729286094058705e-09  -1.9288683493150362e-09  8.1805501088263028e-09  3.2428535850349616e-01  1.9024754063554142e-02  -1.5851463845184262e-04  2.0052894081240694e-06  5.2814037207336176e-14  -2.0719588111508432e-03  -2.2526038949403819e-16  1.6973566398560920e-14  8.9659547844750280e-14  1.2018576570639108e-15  2.6479262013289531e-14  2.5980602447235768e-13  -1.3325864967830032e-19  2.6411072270476821e-06  1.8731854645094189e-14  5.1940140698571125e-18  -4.0878735780248954e-19  1.8430626820981238e-13  3.5679670102837601e-14  1.4458026987696838e-08  -3.5164407503791006e-20  -1.0705272680320215e-20  -4.3639992694153782e-16  3.3181561694545585e-21  7.7037904295341531e-06  3.7372537096470171e-05  -3.0963276257955180e-05  -1.4998828520390635e-04  -4.7730572085532925e-14  1.2559370849903653e-04  -1.4210493523495072e-17  4.2676591836908531e-07  1.4714759142678652e-13  -7.5630848875215197e-11  1.4063162696824237e-09  1.2402307806586804e-10  1.9090195943585541e-06  1.1948239715619282e-18  -3.4648348004754504e-19  -3.6423673052026126e-17  -1.0181725209303046e-17  7.5165868568324189e-15  -9.6375060493368095e-13  3.3593929852004517e-07  -1.8779817759687191e-11  -6.4924310605618356e-17  2.3054724579241263e-07  1.0942115234464287e-08  1.3812117023089601e-08  4.2364298585654766e-04  4.2243787768125569e-10  2.6400373717880100e-16  5.0438962028555831e-15  -3.8457097006483069e-16  6.7158514969813764e-12  5.0600796357010407e-12  -9.4691961888838758e-16  1.3740902100317639e-15  7.1439720239832675e-13  8.8613258665379740e-12  8.6269317274509166e-13  -4.9616939440579688e-16  4.9215972748509706e+00  7.2522183637694540e-02  9.5333784085190335e-08  -6.0145712981128871e-18  2.2759366623742775e-15  7.7543356296152714e-14  7.0766063393198294e-15  -5.3892103422741993e-20  5.3422656346760960e-14  -5.8403692243939106e-19  8.4020519176183726e-03  1.1764923099539986e+00  3.9587097776731586e-12  6.9954726515747942e-11  4.9800295646567457e-10  -2.5272300975302549e-16  3.4965746007535767e-17  7.6902329366929388e-12  1.6098228085180978e-05  1.5114347453898414e-08  5.1551297420061095e-05  2.2674672606553830e-10  -2.4627719519262639e-06  1.3750348314344768e-02  1.4793829176711985e-02  -6.5772928937791464e-12  1.0131484951067363e-12  -1.2859274031402554e-12  8.4213663753999948e-13  5.0947721538677584e-15  -7.7639749689329715e-18  1.3063161572280518e-12  4.0233313674054719e-16  4.8366714565451324e-18  7.3747074398809080e-13  3.0268548680209278e-14  4.9476735098841364e-15  2.5166870992468289e-19  1.6500592904455997e-18  -3.6871001260227228e-12  3.7609017105824720e-17  4.4731823140435973e-10  -1.6384484778652397e-14  9.3468612148464019e-12  1.1858799088252477e-13  2.9589150553321443e-06  1.6465023823708788e-09  -4.0432058326879574e-10  1.3188510883534239e-10  -9.4856291462130778e-17  4.0864101688681643e-17  1.2528907867136562e-17  3.4650453870455596e-19  2.4396817481857813e-17  -6.2962367110232074e-19  5.3802221786270792e-10  1.6333302670461189e-07  -1.8790031639913962e-14  4.5794737939349731e-12  1.1935857427115282e-07  2.9767552153059994e-06  2.4933490124364327e-10  2.9910810910166570e-10  1.1431469886845386e-08  7.9063005370543228e-09  -1.0264434407654123e-11  4.8416794408274211e-14  -2.0816204690826290e-16  7.1932389622129188e-13  9.2672300461312047e-12  3.2888975520503545e-13  -3.4509533865597259e-15  1.5032880886132681e-02  5.9365168318232362e-10  1.8241440766399725e-14  3.7967707413821030e-04  1.7893124974877581e-11  -1.4962497130463058e-13  2.2434102026013208e-12  4.8228520495268680e-09  6.7514067797146748e-02  -3.6813659853598753e-21  5.9442494279067387e-21  -2.5548436648956167e-06  -6.6092911033055602e-19  -5.6479010423343875e-16  -3.2718888668966822e-03  2.5231926361917272e+00  1.4730755040769137e+00  3.7730959804875703e-17  2.3308320333924668e-13  1.8201829068581477e+00  7.0726113885111315e-07  1.3316637552547303e-16  7.5558156379649644e-01  1.6940227628748453e-14  -4.8254845320636460e-20  -2.8153394286947645e-13  7.0105396531692102e-19  -8.6313542729983508e-15  1.4535877391478763e-10  3.4329907634464915e-16  1.2106733056627055e-10  4.2222562765031247e-15  2.4075900542317539e-02  6.4063344311229231e-09  1.7129246491783119e+00  3.3142427563765306e-07  2.8018323486367757e-14  6.1859618778696145e-04  -4.6283120976907427e-13  1.4054899334254604e-09  2.7671082086627586e-17  4.5512638003205267e-12  3.9529741013428198e-16  3.8019014391752902e-17  1.6133529515902089e-08  3.1900327492404485e-09  6.0851552982771977e-16  2.5845487433794938e-08  -3.6860772093837885e-06  5.0835535292578447e-06  -3.8033973820608218e-05  2.3397974730098644e-15  3.3509085046954611e-12  3.3984271437049998e-09  1.2087456046682834e-10  5.3117458137162685e-03  3.3888700118224109e-13  -1.2714762290087061e-14  1.0299347636168983e-13  7.8626428792546606e-13  1.1220975372663271e-11  -4.1842429619709041e-15  6.7235268118036890e-16  4.5645423336764601e+00  -9.8388299829123959e-03  3.7703288170950350e-04  -8.6030679186974946e-05  7.9061649261928164e-05  -7.7817036797354040e-05  -2.1597756300466414e-07  1.8535231662369801e-09  -3.3445569957525814e-11  8.7705409161413438e-05  5.0144749893786909e-18  2.5072270366382222e-10  7.6691767854163887e-15  8.2476087470712966e-07  4.9857236783470185e-07  1.4337162802706079e-06  5.3478525474287915e-05  8.9119817701049376e-16  1.3402646229039645e-16  3.4073034963930179e-08  -1.9836189356874037e-11  4.8708395905404786e-11  -1.1863059143818925e-15  -1.0510699102174313e-15  2.6777943652135561e-07  -1.2114319710081726e-07  -2.5954855519662586e-17  -3.2198311316214655e-17  -9.2768496563636357e-14  4.7964297163927974e-09  -1.6896943449450163e-10  -3.4996308889199943e-11  1.4702709905554166e-09  3.1630734829836653e-06  1.4014728722240356e-09  1.9055235579246762e-04  2.8595189706279936e-19  3.0097105368631998e-17  -2.7045481273227349e-16  3.1306359983725474e-12  6.5547178204199968e-12  2.4102445701590739e-17  -1.9745769378910415e-18  -1.6065939697282671e-18  2.3864377952374738e-17  -9.5865531023864044e-11  7.5534393093359588e-10  2.5042946231773658e-11  6.3515728301300621e-08  4.1043391286599649e-09  8.5135377898450354e-08  1.9746872233759842e-13  2.1901488814476515e-07  1.2276049623664630e-12  3.2388175717694957e-06  -1.6303077026457668e-18  3.7505750933679429e-13  -6.9094820870350239e-14  3.7909684997149756e-12  4.6396002213720301e-13  -1.8946180201466307e-13  -2.8329442017050384e-12  1.5319506619636312e-10  7.9519942245030911e-11  2.0960881744367129e-10  -6.2434704662971020e-10  -1.5226783805668924e-18  -1.2309506242652742e-21  1.2385022957302390e-14  -1.3880682314674607e-14  -5.9588853733670255e-19  -6.6544962367593036e-17  -1.3800906481398127e-20  1.4342458766463321e-16  -1.0661866291492521e-14  -1.2709539108649271e-14  1.5040053160601303e-14  -2.1267725998838209e-16  1.3253421090169360e-17  -5.1793634734503961e-20  4.5648600430787843e-17  -1.1596213458912170e-19  -2.0468968380891251e-18  9.7092412028931353e-17  2.3877535272749464e+00  1.6132482185213351e-06  1.8450171667348648e-07  -3.7922179078008252e-10  1.0642899417493116e-16  2.6438519142829861e-16  3.0321791654736347e-14  -1.2158444111289645e-19  7.4436953437237585e-05  -5.7434122363740967e-12  -2.7923522895633756e-16  -1.7213197017183688e-05  6.2733647850467103e-18  -9.3667353899816484e-10  -9.2375957856130461e-13  -3.2559273139118390e-08  1.1722142542179680e-13  3.2494451568453161e-04  5.1088