<?xml version="1.0"?>
<VTKFile type="UnstructuredGrid"  version="0.1"  >
<UnstructuredGrid>
<Piece  NumberOfPoints="3002" NumberOfCells="5870">
<Points>
<DataArray  type="Float64"  NumberOfComponents="3"  format="ascii">323455.6100285493 6048753.88242996 0  323455.6100285493 5954782.59950515 0  405920.1480513444 5954782.59950515 0  405920.1480513444 6048753.88242996 0  405920.1480513444 6001768.240967555 0  323455.6100285493 6001768.240967555 0  364687.8790399469 5954782.59950515 0  364687.8790399469 6048753.88242996 0  364687.8790399469 5996367.117560402 0  323455.6100285493 6025261.061698757 0  382226.6271443229 6022560.499995181 0  405920.1480513444 5978275.420236353 0  323455.6100285493 5978275.420236353 0  353897.8957397301 6022560.499995181 0  344071.7445342481 5954782.59950515 0  385304.0135456456 5954782.59950515 0  405920.1480513444 6025261.061698757 0  354379.8117870975 5975574.858532775 0  381582.8168806895 5978840.396198289 0  384950.2598624413 6001768.240967555 0  344643.0480768835 6003429.02033719 0  344071.7445342481 6048753.88242996 0  385304.0135456456 6048753.88242996 0  339717.0321562298 5986078.187627405 0  337515.036058786 5969821.016310448 0  368062.2614420265 6013076.224998265 0  368062.2614420265 6032044.774992097 0  393987.6142659165 5988729.699941677 0  405920.1480513444 6013514.651333156 0  392856.2821527076 6034589.119828064 0  393514.9611654527 5968369.338068204 0  339399.8087404341 6032061.482581838 0  323455.6100285493 6013514.651333156 0  374995.9462927963 5965504.865595459 0  354379.8117870975 6037976.901948514 0  338123.9088969378 6017031.529131207 0  367397.3120126425 5982072.559192053 0  351882.5752379905 5991998.990225234 0  376945.425450199 5991232.708824487 0  392265.0061656896 6013300.936254065 0  357029.7426706699 6006608.947964352 0  380093.6207558212 6036880.127749795 0  323455.6100285493 5966529.009870751 0  405920.1480513444 6037007.472064359 0  405920.1480513444 5966529.009870751 0  323455.6100285493 6037007.472064359 0  333763.6772813987 6048753.88242996 0  405920.1480513444 5990021.830601954 0  323455.6100285493 5990021.830601954 0  362879.3643765316 5966837.319094267 0  348367.6438548031 5965604.161682394 0  334493.1989038612 5996935.948935225 0  395068.5043068817 6023875.372615605 0  348216.0324377587 6013504.844950221 0  379305.9090074943 6011603.390019651 0  372523.5158233726 6003480.000732267 0  395435.2039568929 5999384.346358113 0  395612.080798495 5954782.59950515 0  333763.6772813987 5954782.59950515 0  395612.080798495 6048753.88242996 0  374995.9462927963 6048753.88242996 0  374995.9462927963 5954782.59950515 0  354379.8117870975 6048753.88242996 0  354379.8117870975 5954782.59950515 0  335074.5981535012 6007206.680367459 0  391925.2695590468 5978591.908877409 0  371969.1707190623 6022560.499995181 0  383872.162544519 5969415.106147043 0  358038.7139835292 5984533.09712744 0  369699.869182786 5973102.2359358 0  369841.9126663716 6041099.453006387 0  343176.7440329155 5994428.220622956 0  362933.5332293962 6024385.235173292 0  330640.1760208776 5984148.625419154 0  348684.7494355051 5983110.856817525 0  399094.9690929834 6007537.420809742 0  345447.6324516311 5974162.84917082 0  332859.7749513451 6039150.972778062 0  344517.044630671 6024057.945416138 0  332973.1214415312 6025037.914505113 0  341428.0126373461 6040493.820728126 0  385874.264691618 5992757.40885039 0  350337.3662538711 6030387.535304286 0  359887.2373602368 6016186.250094838 0  377097.8989316926 6029115.217702097 0  338917.7109078235 5961484.016839475 0  329495.5261590715 5972402.215053552 0  336644.7280634616 5978216.610794215 0  330688.6715098422 5962480.256438018 0  359899.8039476132 6031963.415584587 0  399746.255941904 6030426.523907755 0  385511.6875144855 6030368.508996127 0  387377.735783329 6040763.821024337 0  398832.192399829 5974431.100387635 0  387992.9498994246 5962432.032572681 0  405920.1480513444 5984148.625419153 0  364925.7641745284 6005782.953640081 0  361769.877068089 6041226.651684469 0  398452.9199001931 6040850.732439541 0  398946.6205243983 5962252.502309519 0  362305.5577564609 5975984.89789681 0  356822.8065216601 5998470.186307689 0  386900.7115926162 5984820.732438302 0  329528.0119279922 6032067.230024892 0  331139.6939744562 6013813.572928222 0  398457.5876798834 5982541.698799337 0  405920.1480513444 6019387.856515957 0  398685.5166750694 6017257.578706384 0  348587.9424884976 6042755.309150081 0  369841.9126663716 5960143.732550304 0  380149.979919221 5960143.732550304 0  359533.8454135222 5960172.384722514 0  377147.8814772839 5972649.581024994 0  341756.3455763521 6010124.092444684 0  355615.8176864882 5966311.193813809 0  369144.4338274571 5989807.770003954 0  375185.9047422862 5983510.422041401 0  323455.6100285493 6007641.446150355 0  391856.7960121195 6005888.565703365 0  371978.0245217044 5996361.134308098 0  405920.1480513444 5995895.035784755 0  378877.1880032702 5998073.745937059 0  359056.6617417652 5991643.489540118 0  399278.8743430426 5993436.466134224 0  386116.8775939071 6009922.097099247 0  323455.6100285493 6019387.856515957 0  388994.7833819839 6019826.789191471 0  348897.6207366391 5998116.079250046 0  345456.3301153719 6035064.814295612 0  323455.6100285493 6042880.677247159 0  334124.3013408988 5990072.953472659 0  377097.8989316926 6018059.782440464 0  323455.6100285493 5995895.035784755 0  342871.8474798963 5980154.238874755 0  373596.9793292385 6035659.183886081 0  380149.979919221 6048753.88242996 0  376327.9292813152 6042294.581731233 0  329163.3548105369 6004704.843558955 0  350303.9432136903 6007093.032074522 0  383982.6552804571 6015912.664375832 0  345515.490569988 5988567.439252969 0  379019.812877927 6004678.052169549 0  365541.9137639466 6018750.691894444 0  349225.7781606728 5954782.59950515 0  352493.3399767278 5960815.406895458 0  363683.8130458911 5986976.225872464 0  386666.791301207 5975084.583584332 0  368937.6553346639 5966171.092344863 0  400003.9882214358 5968352.273777306 0  328776.0063842635 5992958.433193355 0  339958.4428758043 5999572.344589042 0  354577.7732363954 6012555.454074449 0  328609.6436549741 6048753.88242996 0  382053.0280278458 5988228.496807038 0  330708.6817934912 5978212.973348036 0  372084.7734679543 5978495.086505585 0  358568.2738174705 5971419.415228934 0  328931.2672829705 5998832.905089681 0  323455.6100285493 6031134.266881558 0  405920.1480513444 5972402.215053552 0  405920.1480513444 6031134.266881558 0  323455.6100285493 5972402.215053552 0  405920.1480513444 5960655.804687951 0  323455.6100285493 5960655.804687951 0  405920.1480513444 6007641.446150355 0  323455.6100285493 5984148.625419153 0  405920.1480513444 6042880.677247159 0  346648.7613474604 5960023.05127712 0  342415.3891593561 5966358.988213831 0  350507.6510228226 5971111.740321856 0  391773.9667214506 5994456.117700323 0  338875.8905424621 6026088.827345025 0  361429.1735454847 6010511.262533597 0  389395.7028803263 6025805.543023561 0  392895.6464692951 6043315.288173481 0  332846.8296575367 6019296.633131165 0  373337.4404588729 6009693.515402478 0  336544.3064612215 6043648.151399015 0  348610.2411382072 6019567.839754772 0  381943.4597763228 6042183.394750732 0  355630.0631288611 6028071.82801846 0  363941.5238882306 6035967.852698964 0  328179.67203552 6022271.326978176 0  401066.2857736665 5998807.415073814 0  344387.1099621175 6029612.545574771 0  393435.2235156003 5960233.556458537 0  400735.9970493424 6022675.638064924 0  393708.5772019727 6029179.837160029 0  400609.0696943338 5987857.851798974 0  361753.6614662939 6001152.171757337 0  400766.1144249197 6048753.88242996 0  353363.0524357285 6002630.165620538 0  343248.328463803 6018790.640008039 0  356419.8105951758 6043365.392189237 0  390234.385899412 6000759.497967276 0  368336.1168551637 6000220.532318851 0  328609.6436549741 5954782.59950515 0  387520.8298169724 6035372.992507171 0  400588.0280660195 6035823.299583429 0  329021.6598427091 6043194.252697862 0  393371.710206733 5983576.325812268 0  393638.9721728675 5973623.513063556 0  371727.9212466564 6017113.044457142 0  364687.2762977295 5959941.212693035 0  374995.9462927962 5960346.83186599 0  369841.9126663716 5954782.59950515 0  400766.1144249197 5954782.59950515 0  338917.7109078234 5954782.59950515 0  369841.9126663716 6048753.88242996 0  359533.8454135222 5954782.59950515 0  390458.0471720704 6048753.88242996 0  338917.7109078234 6048753.88242996 0  390458.0471720704 5954782.59950515 0  359533.8454135222 6048753.88242996 0  380149.979919221 5954782.59950515 0  349225.7781606728 6048753.88242996 0  339867.4956514095 6005339.817053361 0  333737.9460226952 6002130.523287664 0  336955.8140048417 6012008.440073739 0  377097.8989316926 6023232.32559834 0  371748.9790486701 6028016.629988787 0  338146.5171983215 5993298.164761053 0  355016.8390227688 6017610.913088997 0  393953.1528190996 6018968.416019509 0  335185.8133477239 5965142.63403323 0  328616.6041642396 5967263.80307608 0  380314.9487662361 5965460.362415641 0  354622.8993466098 6032976.142863722 0  328521.4725131759 6027215.026914048 0  334465.0783479523 6034070.534389696 0  328123.6212682287 6009699.206425843 0  381889.5169855529 5973936.741901617 0  359122.3484437474 6036790.002992895 0  386341.6533148278 5979963.279841923 0  400798.2159679119 6012477.871311778 0  388538.3765260249 5967461.292146791 0  340833.8784183678 5975728.708105717 0  355307.6239213505 5988552.151815021 0  362181.4274823388 5981261.937800813 0  353784.0322742948 5981044.538811012 0  358045.1698423899 5978741.391518688 0  328423.7350325213 6036912.015930048 0  366897.6876966125 6027277.723668203 0  347355.1745641421 5978532.307510624 0  376820.5060332146 5979033.270735624 0  349378.1778589479 6024378.632814493 0  327189.2282939323 6016451.253924556 0  338433.8773236172 6036753.902881841 0  350141.9760340559 5987605.90026687 0  363794.7083927878 5991713.491814731 0  350325.1285660182 6035273.515460094 0  382355.9358007369 5983507.499638396 0  327107.0747437811 59811
[...]
<PointData  Scalars="f_47234-1"> 
<DataArray  type="Float64"  Name="f_47234-1"  format="ascii">2.2494282435190594e-21  2.8704975911492421e-21  -1.0032273401653286e-16  4.1434495827351858e-21  5.7318743116864655e-10  3.2421695390630188e-14  1.9845701856372040e-13  -2.0706039002990676e-16  6.6533447328847174e-04  1.5720401899923208e-18  1.1152657565257465e-09  1.1091604062003143e-10  2.9898220214184549e-16  5.4040608231010505e-09  2.5628898026371266e-16  2.2615052503612723e-13  5.6347787904516363e-13  3.7505593900640011e-10  2.1572204842034180e-05  5.1072337703239930e-03  4.7904705869301516e-07  -3.2092357239560354e-18  -1.6765231273198038e-18  -2.5933176022890384e-11  3.7891029594147948e-15  -6.1632841632480026e-05  -2.9055667579352342e-11  -8.9588836669841023e-08  9.6935473480422122e-12  1.7127940363393371e-13  -6.5018862679233054e-11  1.5438834916150173e-14  3.1378387713243306e-14  -8.1560899565118798e-12  2.9259118551110354e-12  3.2754262412188503e-12  1.1482582223808598e-05  -2.0573912338798430e-07  -3.4064857440639591e-02  2.9274320547858838e-07  -1.8113296264715666e-05  4.4038824667365125e-13  6.6098206901197453e-19  -1.7701599602199778e-17  7.3017711782538563e-13  4.5536457314362465e-19  3.7494800234797908e-20  1.9878506898245830e-09  -1.1921201257849084e-15  -6.0871321396760282e-11  -1.0802148175995713e-13  7.5161551934668260e-11  1.8016520223946562e-12  -3.6924871169232825e-08  1.1910062564748463e-05  9.1837951509637450e-01  1.4769697681716262e-05  7.4040076116368916e-14  2.1663353872787764e-18  1.1213970037008450e-18  1.0984093943842033e-16  -3.2268055315462208e-14  1.6485145172396993e-17  1.3247042593649076e-14  -2.3086822046829294e-11  7.6582075796154508e-08  8.7726668625485137e-07  -3.8853568184749335e-09  -2.8138116891038212e-07  -8.5537218284303307e-09  9.0429624312634567e-14  -6.9894376258254045e-09  -9.2102308093867465e-09  6.1156147094342238e-13  -9.4220933950058490e-10  1.4951871873469314e-08  -6.1786326225401183e-13  5.0062240989954710e-18  2.5957392595325613e-11  -2.3822623361973743e-14  2.2396103539721119e-16  -1.1654636051202698e-02  -1.8134456089573027e-11  1.5181731457040617e-05  1.1049491037811915e-10  -4.9539651416786545e-18  -5.3635336799333449e-16  5.9478056408030641e-14  -1.5471920018171187e-17  1.8813007827798654e-11  3.0339430312264488e-14  -5.7218685406354423e-12  -6.6265282595676977e-16  1.1268055609808394e-10  -8.2387262098875502e-12  6.9494663448049632e-10  -3.5445951184229017e-02  2.9377167346430539e-13  2.9933216383304231e-17  3.7975410618934962e-13  9.5511311251075141e-08  -5.0699658038827072e-05  -2.6072846016365982e-05  6.8438376725306746e-18  2.8283648270685724e-13  2.9969007677249859e-08  1.4792328871504891e-12  6.8490346115887734e-10  -8.6729139477962055e-16  3.2762951319622598e-11  -4.7905924801592288e-12  5.2434244092528349e-13  2.0894692059466188e-09  8.4666779555588321e-09  4.2514393190916180e-11  1.0973909327261595e-03  -3.0949316068222055e-04  2.5136195076431784e-14  3.7213878689416623e-06  2.8395623069775078e+00  -1.2860360019540515e-10  2.3903166833001386e+00  -4.3851809395169353e-06  2.3469407677852927e-07  5.5268315645407225e-05  4.0635440032334029e-17  -5.6142305411934265e-10  1.4566050398736608e-06  -2.2950719533892878e-14  5.7874215536701279e-21  4.1049810645219215e-11  -1.5573503027981295e-08  9.2262592772277007e-14  6.2523489786860364e-11  -3.8551813796034682e-12  2.2001999122761287e-16  5.0090229322234080e-14  3.7382495428691569e-12  -2.0203897604650349e-06  1.3533540095090050e-07  4.2408902599399791e-09  7.0729200261391524e-03  9.8917944557071118e-07  -1.2643855351236374e-15  -7.8443212485171489e-14  -7.6008133204018851e-06  5.4413494267702785e-07  -8.3370058475721147e-11  -4.2966111995751168e-13  -1.4314383583860239e-13  2.7785571170840693e-08  2.0361273958884531e-06  1.1226345623698432e-20  2.9066182157021829e-02  -7.2814716005724175e-16  1.5255034856394078e-05  -2.9857395246665316e-10  1.7148321285387125e-12  -1.1074409973691416e-18  1.2399695114470013e-11  -5.2684512227815758e-16  4.0079464010802401e-17  -6.2392300041222049e-16  4.6022580716992824e-20  2.5856493961214480e-10  2.3734624625082358e-15  -2.9512002326571717e-19  -2.9811662169326380e-15  2.7552456199076788e-15  -5.3735200967780069e-13  -3.5108683257704277e-05  -5.0043250817732512e-13  1.6589832195843110e-04  6.5568531095659507e-11  1.1235688858343298e-17  -1.4601215231795771e-13  -1.7578939707408785e-03  -1.5970894137653798e-18  1.2757338964498925e-08  -3.1814544840440308e-15  -1.7951338197466941e-11  5.0662027790092228e-12  7.3612936875189002e-16  1.6290263643494871e-09  4.2361610553649684e-12  -4.5366228726262372e-13  3.4142105869682470e-12  1.2550276024601785e-12  9.9511344227781014e-09  3.1628295791869918e-02  1.3596310365000751e-19  1.2377948115837404e-04  4.1983677417652389e-10  -1.5098960106251938e-15  -3.9172979577881657e-05  5.2232825173750861e+00  -2.0116290721584035e-19  2.1029085087104087e-13  -9.5275974570180300e-17  2.0028095536901281e-19  8.1115660989266378e-07  1.3863536407643136e-09  6.4809017994391170e-05  5.3322045582456761e-12  1.2113285841018469e-11  -7.3500106320676712e-14  2.8624059461810981e-16  -4.4093664334818549e-18  3.5371127877437472e-16  3.4587733051466389e-14  -1.3574003305656234e-17  1.3267880461678788e-19  5.0725982523617067e-15  3.1779809382185394e-18  1.5551715163049393e-13  -2.9680664557237408e-17  2.2318469757271068e-08  4.2727054483007463e-10  2.7350842954533959e-11  -1.1014927571361258e-08  3.4340197106531011e-09  1.3799211071647350e-09  1.0593018263797501e-06  -6.4171225008666125e-11  -2.3415549527578687e-16  -3.1410904719431437e-17  -1.9359975914181971e-10  1.5325046807034923e-11  -3.3332508971647992e-16  -5.8553355082378459e-16  -2.7181341495348402e-13  5.7924349565890634e-08  -2.5168210279328330e-13  -8.7558033526134413e-07  5.1880669793966808e-11  2.6186529911902547e-09  3.8861919364761563e-12  -3.2045610477359625e-07  5.6871796311972006e-07  -1.2482877536000134e-09  5.0740325490211124e-08  1.7827622009320260e-18  3.5007086352828981e-09  -5.5188940913459203e-11  -9.2699120289982207e-06  1.8993303195004616e-09  -5.9285062328792832e-16  1.0615170977562895e-16  -1.9353749594452201e-08  -1.9848218270442558e-04  4.2733606278793895e-13  7.2577188460453779e-04  1.5791925687540286e-15  -1.1821295022729476e-12  -8.7713878270744530e-14  4.8207012969897661e-01  -5.6623893362252935e-09  -1.5255011732058871e-09  1.7474615079063685e-06  5.5336351469732904e-15  2.3914604498721935e-14  1.2867555971249748e-12  -2.5458112151836973e-15  -1.2316232247992241e-14  1.9312937348484569e-07  -3.8625999456097755e-05  -1.0139750940358464e-15  -2.6339298194221427e-03  -1.1724320735342233e-12  3.9226679089607976e-07  -3.0198742346590443e-05  1.6622616772656844e+00  8.8684001754039125e-08  6.2505175298759416e-13  5.4054123107787422e-08  1.8321129787778741e-08  4.1410472243199010e-07  3.3867180786398625e-07  8.0986474914528854e-04  -9.8834088800798453e-11  2.5920616901829381e-09  -3.1046759470509398e-10  7.3008465320946613e-06  1.5294727671701734e-04  4.5550783850325686e-04  2.3607717079601291e-16  2.3297785353036585e-08  1.2904119351701499e-17  -1.4866241646359393e-13  6.6084185249062488e-08  5.8749958818176449e-10  2.3988052789509308e-08  -6.1992006440986744e-17  -3.3904919677427906e-10  -1.6529083296444756e-11  9.1307313201512107e-03  1.4911076101593609e-12  1.0833336453120427e-17  -6.9486772845117791e-16  -6.4793683486427870e-05  6.2798702731699513e-13  -1.1593387129582040e-13  3.0557278396764026e-16  2.0802468644826070e-10  1.1598423952577621e-18  -1.8138554279625554e-18  -4.8610930049274955e-18  2.6442143191927854e+00  9.7322795115875703e-17  -5.7606472875501721e-04  -1.5239242149623841e-15  -2.3725903637670944e-18  -2.7202007027412031e-15  5.3108176891462846e-11  3.1806744130431662e-12  4.9010827179805668e-13  -2.6142273347173303e-09  -2.9783076570854998e-12  2.1858100093979369e-13  1.1423159003115671e-13  1.5096544146574514e-11  -2.6985287447180486e-06  1.5042254264539356e-04  4.6155816888581742e-03  -2.2301217452428340e-15  3.0166949827702648e-09  -8.3292704772292220e-13  -4.7552749478510061e-19  9.4872831664402033e-19  -4.6184718487315711e-11  1.3393392125260600e-10  3.6571218946029886e-11  6.9447883050401746e-11  2.6791635847040444e-13  1.6648743741180923e-13  3.3696085249580226e-14  6.3603370359350575e-01  1.0889496879503654e-08  1.1751877495717921e-11  2.0639529517808714e-08  1.3231853202788578e-02  1.5420425315202385e-02  -6.4422582069775195e-03  7.1696025848158804e-02  -5.4802625960939763e-16  2.4916294268389271e-06  -1.3696377093850067e-10  -7.6105036813321234e-12  -2.6675318979147763e-11  1.0542041760255268e-09  -1.4859479546137402e-21  3.4601610985891099e-20  -5.4186269953116574e-07  -7.2664430627432961e-13  1.4276329800026978e-11  -1.8390441328955460e-06  1.0157166529325135e-13  5.1333621455882322e-09  -1.6464828321677408e-15  3.8760339103383544e-08  1.8946407772880541e-07  -2.4630622044727623e-15  -4.3552689726138817e-18  -8.3455422184237436e-03  -6.0095009784551662e-07  -1.9811466257854871e-12  2.7521699529682143e-11  6.0741167948464610e-11  -3.0427886561801163e-19  7.5963423654811584e-18  1.0243068400664866e-15  6.8075775706073913e-02  2.2756152085077658e-08  3.2063187955727569e-13  -1.2833861090820046e-13  -7.2063484558238336e-12  2.0709872533781598e-10  1.1247226607133547e-12  -3.0162431559789650e-13  8.5652059751595267e-09  -1.0609511908378429e-06  2.2896821902703156e-10  4.2940370078469736e-16  -1.5353242990129495e-11  5.5920818192977830e-09  2.8987331696481088e-15  -1.3746270288084631e-11  -5.2851558756221109e-06  2.3469958620030851e-08  -5.2676035928358034e-11  2.8780094278063890e-12  1.6896550424822983e-13  -4.3179241098504740e-18  -1.7250214882066664e-12  3.5700734098918861e-04  -3.4213886766076042e-10  -3.8621485752152823e-12  -5.6404626800590873e-10  -3.8123151473349191e-11  7.4704609643413938e-11  6.3777781493185956e-09  -4.8730463345975478e-10  -2.5845919359441483e-15  2.2333488525256394e-12  2.4091014551846177e-07  2.5735421139937078e-07  7.1567346121881866e-08  5.1302363573639380e-06  -4.1123085017404802e-06  1.2128641366724971e-08  3.0742041038491807e-07  3.1955001919637117e-13  -3.6419207264434678e-14  5.7261561323680035e-05  3.7157709755229744e-17  -7.3129620260746226e-04  4.1750882412861765e+00  -3.3750120927894493e-17  1.4359283443196802e-13  1.9405971130210175e-06  1.1959178511900559e-09  -3.9447572504359848e-05  1.0014314895685139e-13  2.4039285713508776e-16  1.2677594576527764e-16  1.8965635019859546e-16  2.6528252608114431e-15  1.4799890229783169e-08  2.7161648734277074e-07  2.0773001066764494e-11  6.8227310878873230e-10  -2.0477821300679688e-17  2.2119130136766702e-05  -2.0089014204276297e-06  -1.7608159516264911e-05  2.2065454122717134e-09  1.1647701786191565e-11  4.8206984305502322e-09  -1.4174343818830049e-05  -6.9559046452793889e-07  9.1870510583114899e-04  1.9041937691246964e-08  2.9738856551118135e-09  4.5322092480602363e+00  -1.8875275352866999e-16  -1.9420037710019364e-10  3.6690202066808486e-09  -9.2371632940999821e-08  1.8515965739412512e-12  1.3577415672984928e-10  -6.3366383261704478e-15  -3.2030359800823908e-02  8.1562447434895428e-06  5.7837932230866682e-13  1.9286510014931217e-06  -1.0344741370581038e-10  1.9166218136881994e-14  -7.3655411793205638e-09  1.3280221405185744e-11  8.7633701833246365e-05  1.0957183302716860e-12  3.1083107182922992e-13  -1.3346719585653800e-12  5.4940798254689476e-10  -2.7908305384706488e-17  4.1536640337904261e-11  1.6898294468134612e-15  9.1186721443331818e-08  3.0816091334312863e-09  8.2962247293549268e-07  2.0886431589630446e-13  -1.5069282615675766e-08  -3.8689228853981840e-10  -5.1764986423032736e-17  1.1241158966682434e-01  1.6206669905925570e-13  1.9379402201876974e-09  1.5879111337117402e-11  1.7155114303346727e-07  1.3423084297964664e-06  -2.3449340946022791e-16  3.5229159382972856e-08  4.8231105444748806e-01  6.6739168351934845e-12  3.3062108413493197e-09  5.3649939969101225e-11  -2.8047117238344660e-12  -2.1654077588685291e-14  3.6134478631893806e-11  1.2872983992362561e-04  5.3232472024830377e+00  1.8983490923609299e-09  5.9171945543073812e-10  4.1152053325351967e-19  9.2714591279008367e-09  -1.7333315080682752e-08  -6.9052504492366931e-07  -1.9073623173215971e-13  -3.4424916082388292e-13  -3.0975740300265693e-14  2.1158543367755606e-06  -7.8543371629369902e-17  -4.1399007856331434e-17  5.8178111340090328e-18  -2.7139926894070654e-15  -2.7391120471709441e-07  1.8324052446354068e-06  1.0081754802046628e-06  -4.3320833741726593e-14  -2.6052494824899598e-07  -1.6729289072631206e-12  -8.6218221094836313e-09  -1.8107458181513939e-14  -1.4040222398202974e-05  -6.9479643619518433e-07  3.4701117133989788e-08  3.8898211467562774e-10  -1.1180889750013871e-09  1.3162335366795205e-08  3.5743060540403460e-01  3.9855576671233555e-03  1.0696015293423808e-03  -1.8785185517969040e-07  6.0619102544453264e-14  -2.4997085928112490e-05  -1.9471396842070940e-17  2.4907958266749742e-13  9.7271350785041072e-13  6.0401120241917251e-15  4.8983932588265910e-14  -2.6208461183295044e-13  1.4759399936004252e-19  7.8226510678716758e-07  3.8034137794278098e-14  -3.9646296992843249e-17  -3.4925109611469084e-16  -1.9183568203629078e-13  1.7469402532695137e-12  1.8075306178703437e-08  4.8325111659746038e-20  5.0195627885256268e-20  -1.2204176471861855e-14  4.3339321886771658e-21  -1.1428313982618832e-06  -1.3329896128978100e-06  7.2890715604137689e-05  1.2347323355932846e-03  4.9677064280578785e-13  1.9075089051649797e-04  -3.5534219573994212e-17  2.4729896931911926e-07  -1.2750452460677952e-11  -3.5045975158202048e-10  1.9288015662722355e-10  -5.7006162036664050e-11  1.3149171256703686e-06  -1.4656923339779374e-18  -6.2346091272104735e-19  -5.9503767294716920e-18  -2.3442579334450025e-17  7.4599197894570215e-14  -1.7900213873273964e-12  1.9881661813994095e-07  4.8383687275459992e-10  4.8148185860586250e-17  -3.4159317877177818e-08  8.6033807588109748e-09  1.3410014461308379e-08  -2.5551707223998439e-05  1.3736412501513317e-09  1.6970094362430744e-16  6.5481455910662543e-14  -1.8851228132321296e-15  4.9667287351025184e-13  1.4791511873096323e-13  -5.3678579180411008e-14  -9.5415157049772432e-17  8.0395070755727699e-13  7.2843523873632425e-12  -7.9526094820103144e-13  -9.0682668693479724e-15  1.8268971707001982e+00  6.7484639534260860e-01  -5.0725202643238924e-09  1.4910385718228383e-17  2.9374757435888593e-15  -6.4505452311500061e-15  7.6963593915791392e-16  8.4827249174934100e-20  -1.1289205126306003e-13  -9.5822041326814778e-19  2.6663288463883553e-02  7.3177219390060028e-02  -1.7132898412233267e-12  -1.0522218161053382e-12  8.1371432767937380e-12  8.7177498079560592e-16  -8.3150775273888896e-17  2.5178154968585979e-11  -1.5757852060697626e-06  1.1255528849837176e-06  6.2992683890929845e-05  1.0032654289612019e-09  -2.2749034493579761e-05  6.8091772696363068e-03  4.9369198356878086e-02  -4.2593894482164074e-11  4.4280632655899533e-11  -2.7279575897775064e-12  1.2117217465031648e-11  7.8742455562691322e-14  -7.7181519387408081e-17  3.4957771868918436e-12  -1.4163453653080270e-16  -5.3750034833084722e-17  6.7882236926919042e-12  1.3480571731678670e-14  3.7523951125056184e-14  -7.8563107762912827e-19  1.0278534068028116e-18  -6.0720621037407357e-11  -4.4442959677918750e-16  7.7704783397304402e-11  -1.2058535328051643e-13  2.9868707055238671e-12  7.4773032157725847e-13  9.7652945042470464e-07  -2.1557189885192488e-10  1.6161747500691139e-08  5.7706499001819783e-12  -7.3345517751104570e-16  -3.4907147145852942e-16  -8.0961204123407199e-16  -2.9668595677442725e-19  -1.9776435420089360e-17  1.2411799016182510e-18  -7.8173985502254394e-11  2.4783033543032680e-09  -1.9436208457980910e-13  6.3804802320012503e-12  -5.5862828689056889e-09  -1.9772783294655610e-07  7.1457998930875146e-11  1.7954163213290202e-10  1.0293799642351578e-08  -3.0203109157603646e-09  3.5904501467325316e-11  9.3663210879540117e-14  -2.3108001935467415e-17  -3.6594264552565619e-13  2.0367272844110473e-13  9.6305554813264945e-13  -1.7347051828579885e-14  -3.5950434096370320e-04  9.8059615154374889e-10  1.9085483771859980e-13  -1.8088735910397409e-05  8.7880715196653654e-12  6.4297094353129274e-11  -7.5008815868143716e-14  1.2636728549665334e-08  3.0147585876973512e-04  -7.9096626418845115e-21  -3.3358297055829438e-20  1.0357511934781024e-04  7.7857198962482302e-19  1.6757024720365074e-14  6.3840077136288892e-03  -3.7828170483191891e-02  1.8102067502554565e-03  -2.3966551469064075e-17  -1.0214110345476514e-14  -3.0554765850053966e-02  -1.1384601266203970e-08  -6.1558965273002560e-16  1.0499279719728542e-01  1.3306706822313937e-13  -7.1117057858654649e-21  -1.7882077638299582e-12  -1.4575414884821927e-16  1.1023874668852147e-15  -1.9053117601156497e-09  -3.0387678073714383e-16  5.1676334390278100e-10  -5.6155619796861611e-16  4.5980255685106799e-03  3.3104892408593510e-09  5.2613844220991857e-02  4.4151758676624352e-09  3.7813173678524996e-14  7.5861064468859749e-03  -7.2862075219023695e-13  -5.7871401338795988e-10  -1.0063965367065031e-16  8.7261328506178540e-11  1.7748891474423596e-16  2.4305814518736219e-17  1.2011419332326570e-08  2.9491750061482494e-09  3.1524016084076194e-15  -1.4150682723528331e-08  4.0237001212446038e-05  -3.5219905106259726e-07  6.1909320481998284e-04  3.3425133069240966e-15  2.4610470376795465e-12  -4.7192174430367003e-10  4.2485239935469797e-10  -9.0821239711317748e-05  1.0125032670102276e-12  -2.6112558836399126e-13  8.3510666861670992e-15  2.7886964243599154e-13  9.1389204450899519e-12  -1.4920450406133468e-14  1.7827077242627005e-14  6.2738530260725023e+00  9.7048783908109282e-04  -7.4462655660563690e-05  4.4077407016636220e-05  -7.6040692989204029e-06  9.9367845531247697e-04  1.0998864659080758e-05  1.1226138590277184e-09  3.1681988427542081e-10  1.0029795502725868e-05  -6.5845548804450607e-17  3.4312368418213461e-10  1.7315927058387976e-13  -2.7518914384095609e-08  -5.9574145112667490e-09  -3.7780513744127099e-08  1.8406226925387972e-05  -8.4206955797663930e-16  -4.8507015584028298e-16  1.6690830623894058e-08  1.2116416820294104e-11  1.9055787890217124e-10  -8.8825172190814337e-16  8.9649344990542264e-13  7.7672585730906146e-08  4.4981428053458144e-07  -8.6376687673811106e-17  1.6021945073303551e-17  -6.8408029175226665e-13  2.9359074806400227e-09  2.8642054972143085e-10  -7.2888579656981606e-10  2.6174301140894399e-09  3.1420679570307152e-07  -2.0692213615343418e-10  -6.5015296700577285e-06  -9.3185625641601052e-20  2.0280867207531319e-16  1.4556327338985899e-15  2.2668423821497038e-10  1.5954590985528725e-11  1.7355712514857466e-17  2.2609803005532770e-17  -2.4786811986894638e-18  -1.2289676715402353e-16  -1.4759042686075780e-09  1.3085159929789066e-09  5.3351266003018352e-11  -7.7351497303045577e-08  8.9470577705396580e-08  -3.8713771297781389e-08  1.7303192156404833e-12  7.8556251315562233e-08  -3.7898756375529684e-14  -1.4938377075862589e-06  1.3741680905390421e-16  1.7570462520779538e-12  -1.7999438970965713e-13  6.7828683502710854e-12  5.8930236446165486e-12  8.3701139840249884e-13  1.2565589907294686e-11  -1.5085101374421180e-11  -1.5132814228786583e-11  -1.9707275617969474e-11  -8.5043094133827109e-10  1.0180633720207578e-17  -6.1001826652352020e-21  8.6701672679199799e-14  -1.4954579353802085e-14  1.9227517011155939e-18  7.6788587689033298e-16  1.8067252827194382e-17  2.7411626295215433e-15  -3.0023446273117320e-14  3.3268704625527589e-14  -3.0668669724595698e-14  -1.1873319484293163e-16  2.1024545334978748e-15  -2.4982607880526293e-19  1.8909981307582522e-17  -6.3001200806346915e-20  -5.2602683880943895e-19  3.8177999363703798e-18  2.7906069138556537e+00  1.0171611782962131e-06  -1.4010029553501967e-09  2.6573139432122481e-08  1.2234018753802854e-16  2.2702675352467014e-15  -2.6184916995672607e-15  1.1291981517358859e-20  2.8114963366144896e-05  -3.5934732148352707e-11  -4.3085585095314229e-16  8.6012610829411062e-05  3.7191690411102064e-17  1.1231429241095395e-09  -4.2967534720531584e-12  2.0037948584312035