<?xml version="1.0"?>
<VTKFile type="UnstructuredGrid"  version="0.1"  >
<UnstructuredGrid>
<Piece  NumberOfPoints="2745" NumberOfCells="5356">
<Points>
<DataArray  type="Float64"  NumberOfComponents="3"  format="ascii">323455.6100285493 6048753.88242996 0  323455.6100285493 5954782.59950515 0  405920.1480513444 5954782.59950515 0  405920.1480513444 6048753.88242996 0  405920.1480513444 6001768.240967555 0  323455.6100285493 6001768.240967555 0  364687.8790399469 5954782.59950515 0  364687.8790399469 6048753.88242996 0  364687.8790399469 5996367.117560402 0  323455.6100285493 6025261.061698757 0  382226.6271443229 6022560.499995181 0  405920.1480513444 5978275.420236353 0  323455.6100285493 5978275.420236353 0  353897.8957397301 6022560.499995181 0  344071.7445342481 5954782.59950515 0  385304.0135456456 5954782.59950515 0  405920.1480513444 6025261.061698757 0  354379.8117870975 5975574.858532775 0  381582.8168806895 5978840.396198289 0  384950.2598624413 6001768.240967555 0  344643.0480768835 6003429.02033719 0  344071.7445342481 6048753.88242996 0  385304.0135456456 6048753.88242996 0  339717.0321562298 5986078.187627405 0  337515.036058786 5969821.016310448 0  368062.2614420265 6013076.224998265 0  368062.2614420265 6032044.774992097 0  393987.6142659165 5988729.699941677 0  405920.1480513444 6013514.651333156 0  392856.2821527076 6034589.119828064 0  393514.9611654527 5968369.338068204 0  339399.8087404341 6032061.482581838 0  323455.6100285493 6013514.651333156 0  374995.9462927963 5965504.865595459 0  354379.8117870975 6037976.901948514 0  338123.9088969378 6017031.529131207 0  367397.3120126425 5982072.559192053 0  351882.5752379905 5991998.990225234 0  376945.425450199 5991232.708824487 0  392265.0061656896 6013300.936254065 0  357029.7426706699 6006608.947964352 0  380093.6207558212 6036880.127749795 0  323455.6100285493 5966529.009870751 0  405920.1480513444 6037007.472064359 0  405920.1480513444 5966529.009870751 0  323455.6100285493 6037007.472064359 0  333763.6772813987 6048753.88242996 0  405920.1480513444 5990021.830601954 0  323455.6100285493 5990021.830601954 0  362879.3643765316 5966837.319094267 0  348367.6438548031 5965604.161682394 0  334493.1989038612 5996935.948935225 0  395068.5043068817 6023875.372615605 0  348216.0324377587 6013504.844950221 0  379305.9090074943 6011603.390019651 0  372523.5158233726 6003480.000732267 0  395435.2039568929 5999384.346358113 0  395612.080798495 5954782.59950515 0  333763.6772813987 5954782.59950515 0  395612.080798495 6048753.88242996 0  374995.9462927963 6048753.88242996 0  374995.9462927963 5954782.59950515 0  354379.8117870975 6048753.88242996 0  354379.8117870975 5954782.59950515 0  335074.5981535012 6007206.680367459 0  391925.2695590468 5978591.908877409 0  371969.1707190623 6022560.499995181 0  383872.162544519 5969415.106147043 0  358038.7139835292 5984533.09712744 0  369699.869182786 5973102.2359358 0  369841.9126663716 6041099.453006387 0  343176.7440329155 5994428.220622956 0  362933.5332293962 6024385.235173292 0  330640.1760208776 5984148.625419154 0  348684.7494355051 5983110.856817525 0  399094.9690929834 6007537.420809742 0  345447.6324516311 5974162.84917082 0  332859.7749513451 6039150.972778062 0  344517.044630671 6024057.945416138 0  332973.1214415312 6025037.914505113 0  341428.0126373461 6040493.820728126 0  385874.264691618 5992757.40885039 0  350337.3662538711 6030387.535304286 0  359887.2373602368 6016186.250094838 0  377097.8989316926 6029115.217702097 0  338917.7109078235 5961484.016839475 0  329495.5261590715 5972402.215053552 0  336644.7280634616 5978216.610794215 0  330688.6715098422 5962480.256438018 0  359899.8039476132 6031963.415584587 0  399746.255941904 6030426.523907755 0  385511.6875144855 6030368.508996127 0  387377.735783329 6040763.821024337 0  398832.192399829 5974431.100387635 0  387992.9498994246 5962432.032572681 0  405920.1480513444 5984148.625419153 0  364925.7641745284 6005782.953640081 0  361769.877068089 6041226.651684469 0  398452.9199001931 6040850.732439541 0  398946.6205243983 5962252.502309519 0  362305.5577564609 5975984.89789681 0  356822.8065216601 5998470.186307689 0  386900.7115926162 5984820.732438302 0  329528.0119279922 6032067.230024892 0  331139.6939744562 6013813.572928222 0  398457.5876798834 5982541.698799337 0  405920.1480513444 6019387.856515957 0  398685.5166750694 6017257.578706384 0  348587.9424884976 6042755.309150081 0  369841.9126663716 5960143.732550304 0  380149.979919221 5960143.732550304 0  359533.8454135222 5960172.384722514 0  377147.8814772839 5972649.581024994 0  341756.3455763521 6010124.092444684 0  355615.8176864882 5966311.193813809 0  369144.4338274571 5989807.770003954 0  375185.9047422862 5983510.422041401 0  323455.6100285493 6007641.446150355 0  391856.7960121195 6005888.565703365 0  371978.0245217044 5996361.134308098 0  405920.1480513444 5995895.035784755 0  378877.1880032702 5998073.745937059 0  359056.6617417652 5991643.489540118 0  399278.8743430426 5993436.466134224 0  386116.8775939071 6009922.097099247 0  323455.6100285493 6019387.856515957 0  388994.7833819839 6019826.789191471 0  348897.6207366391 5998116.079250046 0  345456.3301153719 6035064.814295612 0  323455.6100285493 6042880.677247159 0  334124.3013408988 5990072.953472659 0  377097.8989316926 6018059.782440464 0  323455.6100285493 5995895.035784755 0  342871.8474798963 5980154.238874755 0  373596.9793292385 6035659.183886081 0  380149.979919221 6048753.88242996 0  376327.9292813152 6042294.581731233 0  329163.3548105369 6004704.843558955 0  350303.9432136903 6007093.032074522 0  383982.6552804571 6015912.664375832 0  345515.490569988 5988567.439252969 0  379019.812877927 6004678.052169549 0  365541.9137639466 6018750.691894444 0  349225.7781606728 5954782.59950515 0  352493.3399767278 5960815.406895458 0  363683.8130458911 5986976.225872464 0  386666.791301207 5975084.583584332 0  368937.6553346639 5966171.092344863 0  400003.9882214358 5968352.273777306 0  328776.0063842635 5992958.433193355 0  339958.4428758043 5999572.344589042 0  354577.7732363954 6012555.454074449 0  328609.6436549741 6048753.88242996 0  382053.0280278458 5988228.496807038 0  330708.6817934912 5978212.973348036 0  372084.7734679543 5978495.086505585 0  358568.2738174705 5971419.415228934 0  328931.2672829705 5998832.905089681 0  323455.6100285493 6031134.266881558 0  405920.1480513444 5972402.215053552 0  405920.1480513444 6031134.266881558 0  323455.6100285493 5972402.215053552 0  405920.1480513444 5960655.804687951 0  323455.6100285493 5960655.804687951 0  405920.1480513444 6007641.446150355 0  323455.6100285493 5984148.625419153 0  405920.1480513444 6042880.677247159 0  346648.7613474604 5960023.05127712 0  342415.3891593561 5966358.988213831 0  350507.6510228226 5971111.740321856 0  391773.9667214506 5994456.117700323 0  338875.8905424621 6026088.827345025 0  361429.1735454847 6010511.262533597 0  389395.7028803263 6025805.543023561 0  392895.6464692951 6043315.288173481 0  332846.8296575367 6019296.633131165 0  373337.4404588729 6009693.515402478 0  336544.3064612215 6043648.151399015 0  348610.2411382072 6019567.839754772 0  381943.4597763228 6042183.394750732 0  355630.0631288611 6028071.82801846 0  363941.5238882306 6035967.852698964 0  328179.67203552 6022271.326978176 0  401066.2857736665 5998807.415073814 0  344387.1099621175 6029612.545574771 0  393435.2235156003 5960233.556458537 0  400735.9970493424 6022675.638064924 0  393708.5772019727 6029179.837160029 0  400609.0696943338 5987857.851798974 0  361753.6614662939 6001152.171757337 0  400766.1144249197 6048753.88242996 0  353363.0524357285 6002630.165620538 0  343248.328463803 6018790.640008039 0  356419.8105951758 6043365.392189237 0  390234.385899412 6000759.497967276 0  368336.1168551637 6000220.532318851 0  328609.6436549741 5954782.59950515 0  387520.8298169724 6035372.992507171 0  400588.0280660195 6035823.299583429 0  329021.6598427091 6043194.252697862 0  393371.710206733 5983576.325812268 0  393638.9721728675 5973623.513063556 0  371727.9212466564 6017113.044457142 0  364687.2762977295 5959941.212693035 0  374995.9462927962 5960346.83186599 0  369841.9126663716 5954782.59950515 0  400766.1144249197 5954782.59950515 0  338917.7109078234 5954782.59950515 0  369841.9126663716 6048753.88242996 0  359533.8454135222 5954782.59950515 0  390458.0471720704 6048753.88242996 0  338917.7109078234 6048753.88242996 0  390458.0471720704 5954782.59950515 0  359533.8454135222 6048753.88242996 0  380149.979919221 5954782.59950515 0  349225.7781606728 6048753.88242996 0  339867.4956514095 6005339.817053361 0  333737.9460226952 6002130.523287664 0  336955.8140048417 6012008.440073739 0  377097.8989316926 6023232.32559834 0  371748.9790486701 6028016.629988787 0  338146.5171983215 5993298.164761053 0  355016.8390227688 6017610.913088997 0  393953.1528190996 6018968.416019509 0  335185.8133477239 5965142.63403323 0  328616.6041642396 5967263.80307608 0  380314.9487662361 5965460.362415641 0  354622.8993466098 6032976.142863722 0  328521.4725131759 6027215.026914048 0  334465.0783479523 6034070.534389696 0  328123.6212682287 6009699.206425843 0  381889.5169855529 5973936.741901617 0  359122.3484437474 6036790.002992895 0  386341.6533148278 5979963.279841923 0  400798.2159679119 6012477.871311778 0  388538.3765260249 5967461.292146791 0  340833.8784183678 5975728.708105717 0  355307.6239213505 5988552.151815021 0  362181.4274823388 5981261.937800813 0  353784.0322742948 5981044.538811012 0  358045.1698423899 5978741.391518688 0  328423.7350325213 6036912.015930048 0  366897.6876966125 6027277.723668203 0  347355.1745641421 5978532.307510624 0  376820.5060332146 5979033.270735624 0  349378.1778589479 6024378.632814493 0  327189.2282939323 6016451.253924556 0  338433.8773236172 6036753.902881841 0  350141.9760340559 5987605.90026687 0  363794.7083927878 5991713.491814731 0  350325.1285660182 6035273.515460094 0  382355.9358007369 5983507.499638396 0  327107.0747437811 59811
[...]
<PointData  Scalars="f_50-1"> 
<DataArray  type="Float64"  Name="f_50-1"  format="ascii">6.3406345155817049e-29  -2.9066752616489645e-27  -2.8819407544484051e-22  6.4666134893415334e-26  4.2053715804752659e-17  -1.4774606086666794e-22  7.0021321678945570e-22  1.8391867413496002e-23  -3.6867810490943104e-08  -2.6109269741741600e-24  6.9722497605957835e-16  -4.7807302243330028e-18  4.1255298496315377e-24  -2.9978693532678913e-17  1.0666612381211990e-23  -4.5989285275596231e-21  -4.7838068449867873e-21  1.5159952484298029e-16  -9.4698867260758933e-13  1.1158419190655553e-11  -1.2088416758233116e-16  -1.3446642914198961e-23  -5.8667214542924736e-23  3.1404921040592194e-18  -1.1001628376549824e-21  -2.9387814247591345e-11  1.5105606157850057e-17  -5.2608217018245136e-14  1.0439939237633043e-18  7.4308319713356826e-20  6.7045361753510438e-17  1.4218129909058832e-23  -5.9351697655053012e-23  -1.6110922604847548e-17  6.0115544902101273e-20  -2.1148523882392694e-19  3.7337815704376643e-12  -1.1523151197267995e-13  -1.8749995877681949e-07  7.9001417249005151e-16  2.4064583570583561e-12  7.4254137083774927e-19  1.3382943464202103e-25  3.1735678482494961e-23  -4.9546198652047706e-20  -3.9786311891315102e-25  2.6459695795685853e-26  -1.3492267733514790e-17  -3.1547767713121218e-24  -5.4990032482275522e-18  -5.7886958472148277e-21  -5.9608045529334873e-20  1.3458145743376276e-18  2.5417750706944349e-16  -3.7515402011188342e-12  -1.9738885024021516e-08  7.7503811640834198e-14  -5.3424715883332342e-21  3.1355477319785203e-25  -6.6457164983491183e-24  2.2522834789702529e-23  1.8156908107533783e-21  5.4200081080445161e-24  1.3189106956733334e-22  2.4030345455383467e-19  3.9914649017556206e-14  9.4330370546712499e-14  9.4860189774837554e-16  -2.7617386799415890e-13  -3.2820227369537516e-15  5.2927907933302110e-20  -2.7331156255330921e-16  1.1676155257472477e-14  1.3641766213684074e-21  6.2754988653328245e-18  3.6361226731604350e-16  -1.1385666419469328e-18  2.2709751518446069e-25  1.5064091733019505e-20  4.4223667177232881e-21  -1.5620573955610296e-23  4.5171251610517582e-10  3.6399722759210079e-18  1.2255751980599815e-13  6.8187722016783826e-18  -4.2058236497473373e-23  -6.5900039233645056e-24  2.0934964862329315e-20  -4.2946720714592941e-26  1.4467886933288682e-17  -8.4722567654450478e-22  1.2125250297734725e-17  2.4717066571616261e-21  3.1029443650362181e-17  3.7979883934169179e-18  -2.7958378760291545e-17  -5.5083580562730338e-09  6.9607986937012354e-20  1.8421280565359635e-22  3.5742042972556761e-20  -4.7482455465712916e-16  -5.3167870984946879e-12  1.5436037335741292e-11  1.5442941457133992e-23  -4.5191647581154028e-21  -6.5263390437044810e-17  7.6815883350224981e-20  7.5791815504167732e-18  -1.3939325553534360e-21  2.5945967793099101e-19  1.4222848110055985e-19  5.8135408734501424e-21  -5.8173445260322260e-15  -2.8482641119669635e-17  -2.0307065200379715e-19  1.1556188607298102e-09  -1.2714719643100161e-11  7.6657628678386400e-23  8.5136772898696765e-14  -3.7429046241074025e-06  -3.6236428707845862e-17  1.6882339306109773e-07  -7.9851591922388179e-11  3.5737926945480714e-15  1.8450344007764455e-13  1.4317201513750605e-23  -1.8418569942194854e-16  1.2306492512242894e-13  2.8602034578529926e-21  -1.1767172436749716e-26  5.7507622503440213e-20  -8.2936997111052246e-13  6.9939298045827113e-23  -1.5885476169275499e-18  9.6856552107037336e-19  1.7669912514807269e-22  -4.4733563442762471e-21  -1.1251909642744530e-21  -1.9772565487735620e-14  -8.0287396435369900e-15  3.3667665233931174e-16  1.7667491285810749e-10  1.0065671303575434e-12  -1.3552719275558066e-23  -1.0203276045940722e-21  1.0070277879481964e-11  -3.5459477842884013e-14  -1.3318245952268621e-17  -1.7913700971401009e-19  -1.9860493371812680e-21  -2.9335657265336596e-17  1.6958985144045734e-14  2.7535098938735466e-28  -7.4082448545221267e-10  2.0569308560266230e-22  4.4032110399937627e-13  2.2190627990306955e-18  -6.1798865019196560e-21  -1.0769927146928836e-25  -3.8698368096971155e-19  -1.5550981963756815e-22  1.1839582621223632e-24  1.8733461448869149e-21  8.8002042125686900e-27  4.8155294752852619e-18  5.4909988205843296e-23  3.4885951045818470e-24  3.7666027416244151e-22  -4.9789599131142106e-21  3.1079536520095016e-18  3.2229179408022421e-12  9.9482085156513012e-21  2.3010859862945551e-12  -2.2969844014723607e-18  2.6374539758968296e-22  -3.7798894482812242e-21  -3.1800794275814550e-10  1.7531518926666984e-25  9.6073381606025113e-17  8.6874775147413300e-22  4.5754981417233015e-17  4.4695767942235761e-19  -2.4672304992370440e-23  2.5463469674709966e-16  -1.4633734250468316e-23  -1.0743634537237781e-19  2.6856532579716831e-21  3.5811863035862091e-19  9.3072679289238614e-16  1.9605500890597483e-08  7.1425870076458576e-25  1.0279739287918645e-13  -5.8207493359642694e-18  -6.1224458296884520e-22  1.8688517897410418e-12  2.8820756636354081e-05  -3.5610080000072706e-26  7.1202464446716724e-20  8.7323936860151073e-22  -8.1431743240194754e-27  1.0951601239311041e-14  -5.7509751406299937e-16  5.1572147446237569e-12  2.7094119435672791e-20  1.9188309009604923e-20  6.1254288444210153e-23  -2.5920461351012717e-22  4.7123114529736508e-24  2.9104687258967841e-22  1.3454671414885515e-22  1.3250214890064939e-23  5.6608801704290771e-25  -9.8645957818512092e-21  2.6652658803484690e-23  5.3463835432360757e-21  -7.3533112596469675e-23  -2.5463581117696698e-18  -1.8323703610511179e-19  2.7686370674173795e-19  4.4903276140870596e-14  2.7706430433098553e-16  1.3051862361645191e-18  3.1226856673432556e-15  -1.2318288475695451e-18  -6.7637315175555653e-23  1.1624203410085434e-24  -8.7979650607415400e-18  2.8333104413923163e-18  2.3935131183331175e-23  2.6714730792957114e-23  2.2020416767333655e-21  1.5354627444580015e-14  9.4850765270487023e-19  1.1646998786446335e-12  6.3433547127881822e-18  -2.0285327671565968e-17  -6.1280882943930941e-20  -8.1828608176568673e-13  -1.6503792403575685e-15  -1.2875052095417714e-15  1.5013708233511032e-17  3.8504162310124266e-25  4.9397835289283073e-16  -1.3067451958248552e-17  4.4805207730179543e-13  9.8531973057002816e-18  1.3745235740639289e-22  1.7879349868911864e-23  -6.9733226690301324e-15  -5.2215255087958125e-10  -5.5194798964770072e-20  -4.6497056564044224e-11  6.3184942863654439e-23  8.8972015732398778e-20  -8.5928419863457355e-22  5.3405923944784924e-08  -2.4265259156442668e-16  -5.0626215057350089e-17  1.3353198592806318e-13  2.0786500257450962e-21  -3.9081398616114341e-21  9.3324230191893012e-19  1.7450854355928003e-23  1.0207553617501593e-21  -1.7602880652492586e-15  -1.5987600515488061e-11  2.1327210153245176e-22  7.6287397419481298e-11  6.2057660917684892e-20  -1.1550845615073765e-15  -6.6749733337098258e-13  1.5740373191037979e-07  -1.1025116231379996e-16  -9.5537841734983416e-20  -1.6495523929968734e-15  -2.6192215885777569e-16  2.1044219643357677e-15  3.4269163280583748e-16  4.9452597397236195e-12  -2.3389919636749501e-17  -2.1687639237967062e-17  -1.1118757808241648e-17  -1.3323814583630863e-14  9.0931957223096064e-12  1.5123814809667163e-11  1.8171757394599802e-21  -3.5243539080849000e-15  -2.1379485199871699e-24  -3.9139768086487410e-20  1.1922553055276160e-16  -3.2489600808968954e-17  1.4834094134448351e-16  7.2956640539063830e-23  6.7055495488624743e-17  8.4036097708312311e-18  -2.5070021426581408e-10  7.1880282838061883e-19  2.6368789427235645e-25  4.7760231395648412e-23  2.0994613276064635e-12  1.4120153826929325e-20  3.6264320818446729e-19  2.5200042457867407e-23  3.3582393386061959e-18  6.5166924354639171e-24  1.3840690477601019e-23  -8.3147265159113134e-27  3.8729649183004021e-07  5.7426608444846472e-22  -7.7556643591939354e-12  -7.0210302911040230e-22  -3.9505432101925611e-25  2.7393302309405443e-20  -2.0677696304880201e-18  8.6573592886986172e-19  -4.3693215900041489e-20  1.0422820902114195e-15  3.1339241255696064e-18  -2.1244300657543821e-20  -2.7456375071401886e-20  1.8586728977430602e-19  -7.0460310273640744e-14  2.4146047680695631e-10  5.9646124271683204e-12  -2.6873649898606172e-21  1.3986599467990882e-16  2.8133039189677601e-19  -1.9407078525103959e-26  8.9942108343448637e-24  1.6651160933709769e-18  1.1737510312976465e-18  -9.7560863283411781e-18  4.2277423042922155e-18  -1.9447674079614492e-21  3.2638339295777153e-20  2.2420024232081696e-20  3.0275211395188444e-10  5.0450081579672394e-16  -4.2282721033731351e-19  -4.5037185577612483e-15  1.6193303673853010e-11  6.1492709943159340e-11  -6.9719524607942346e-08  6.8079347770481417e-08  5.1461879784512290e-21  8.5658484505369465e-13  2.0584348242577457e-16  1.5448449757209968e-19  2.2915722388818808e-17  -1.5494569974812109e-16  -4.3679555986263245e-28  9.2854599063770648e-26  -4.8485870169062733e-14  2.5681002417909915e-21  -6.0937762660153656e-20  -3.6987255898030621e-12  -1.5139903090957998e-20  -2.5556927384516217e-14  -1.5543191576266754e-21  -1.9026022605410030e-15  -8.8680173505316699e-15  -1.9273059221891878e-22  5.5450673023247272e-25  -8.3184424766066913e-10  8.7433289534745414e-14  1.2215496942593230e-18  -4.0912512900043818e-20  4.4164648302512036e-19  8.8222017649162054e-27  -7.4971549290339249e-23  9.7780723927365209e-22  -3.8255162310496697e-11  -1.8831556595404671e-16  1.5233216496247298e-21  -2.8818431760676471e-21  -2.5068175657090516e-19  6.9911537972665329e-19  2.5082388071447405e-20  7.5651247609363520e-21  5.0398170594637727e-14  -2.0079390512114320e-13  -1.3665358747571460e-18  -1.5878559382317665e-22  -3.1602084394890155e-19  -6.7125927676790002e-17  1.4936583786701878e-22  -2.5363385673547608e-19  1.1333793005801077e-10  -2.5440794199555404e-15  1.0671909232393805e-17  2.6684672148220782e-20  -1.5647003967695174e-21  -1.4291515559465080e-25  4.4734062589563468e-19  2.3018075213427635e-10  6.0556707112513073e-18  2.9988020466625744e-20  2.9376390859217393e-17  3.2492857849269444e-19  -5.8723279371845296e-20  -1.3867930213827128e-16  2.7998850997737346e-16  2.7650072834309950e-22  1.4147489761119545e-18  -3.1791446540746332e-13  -3.4003562039742922e-14  -9.3984499908902527e-15  -1.0834955914272440e-13  -8.0215681842763555e-12  1.5099965317563526e-15  -4.1384990284423940e-16  3.8965884795463143e-21  7.9005365997693862e-20  1.3822527155210500e-14  7.3379705832214012e-26  -4.2505262833296575e-11  5.0809896116041896e-04  -1.0260292305288293e-23  5.8364270323120051e-21  -5.4769728345246901e-14  -4.0894563615474024e-18  8.1401378255546947e-13  7.5954884155516750e-20  1.5461048634531502e-22  1.0410511651360017e-22  -1.2322027754994708e-22  2.9478132519884471e-22  -4.6263190263506279e-16  -5.0840544454796900e-15  4.6865470259535352e-19  1.7413191256629227e-17  9.9519559854942581e-22  -1.4803017482183239e-12  -1.1386034275115806e-14  5.0226169044371576e-12  -1.0024771307322305e-16  -1.0323559708069719e-20  -2.1740851719280764e-16  1.7267084194892467e-13  1.8699516312389244e-14  -3.3770924005368273e-11  1.0830671056437657e-15  -5.3033392141497561e-19  6.5914052410564124e-06  1.5149305725854133e-23  1.0066717568376375e-16  -1.1573153829890930e-16  -3.3228897625818513e-15  7.8331008871096555e-21  -1.6850762526537301e-19  -3.3388368362582689e-22  -2.6696441603226422e-05  2.2886150907776262e-13  2.3228699568787189e-19  7.3257265288406708e-13  7.3801307267204482e-17  -8.3379066615655501e-23  2.1993997145586405e-15  4.6123807986848431e-19  -3.7388589196761487e-12  -3.1697601254112376e-21  -3.9410206799247253e-21  2.0266639707004967e-19  -8.6799378177540864e-19  -4.5015124031011217e-26  -4.2172272829385871e-19  2.6868223000855218e-21  3.9867821072722841e-16  -2.2003696771048202e-17  1.7229753772704268e-13  4.1320983117387172e-20  2.2208193714949909e-16  3.6217545663057947e-16  4.3526201971335420e-25  -1.1795470704279771e-06  1.8167609391280131e-20  1.4827781171206441e-17  -1.9364786423087325e-18  1.4583666492125543e-13  -1.1972312552128331e-14  -1.2459970330796371e-21  -3.8677843765430522e-16  7.1635969199496386e-09  1.0739696285165974e-20  2.0126534196327920e-18  2.4179721684432535e-19  2.6648277662031327e-20  1.9137422285943729e-22  7.5917890029215671e-18  3.6531971173006358e-12  -2.5434431790119043e-06  -7.4466676413318908e-17  -4.0660171280440834e-17  3.8153305654354435e-26  -1.1227956965656402e-18  7.5631768517650509e-17  1.1082872640713169e-13  3.9206255744879912e-22  -1.0566588699308048e-22  -1.0920181588271369e-22  -7.1959360806207498e-15  1.0583491787225836e-24  2.7183160337273401e-24  -2.8205595617696612e-24  8.9141036827389494e-24  1.6664265616266729e-14  -3.9619137670148172e-14  2.0049165637264583e-14  2.0509616634439803e-22  3.1224011928954581e-15  -8.1356608806602045e-20  3.9675820800548628e-16  3.3577983997984147e-21  3.1882174375646058e-12  7.4629913422214906e-13  -2.2593168035618687e-15  -2.9572119244245460e-17  -4.5358461824290643e-16  3.3478381074056856e-16  3.9385336841321579e-09  1.6414555512013407e-09  1.0379505021968862e-10  -1.0644319872109032e-15  4.3002911356463864e-21  1.6807636894818975e-09  2.8474984828572234e-22  -2.7941999402798206e-21  -5.9715931731881909e-22  -6.7736576088515788e-23  7.7607149131170010e-22  2.5621663180503677e-20  8.0165140365187925e-25  -7.4368657401479232e-14  7.5399889176550972e-21  -2.2890284060261863e-24  -3.1112789133535635e-22  -1.4173056286122228e-20  4.1741994603225583e-19  -6.5680079317948702e-16  -3.4008983984488060e-27  1.3897524082147530e-26  -4.8380503538674602e-20  -8.0998227260756691e-29  1.3257535337565547e-12  -2.7880145318723006e-13  6.7978072931035232e-13  2.9158147839228837e-11  4.1614507036469528e-21  2.3697268945642095e-10  -3.4630185466643238e-24  1.0494163680955149e-15  -8.4592965701015259e-19  -1.0297088423397108e-17  -8.8620377614999642e-18  3.7182965276335093e-18  -5.8523717515794727e-14  3.2197146295362135e-24  1.0390888319667746e-23  -6.1526196936831272e-22  -1.4883742233252883e-22  -5.5894601673753142e-23  -2.8243074817571023e-20  -3.6743344003196793e-14  -1.9306721584804991e-17  4.3909600993728213e-23  1.6048523733411275e-16  1.5437211634950435e-17  -7.7973393441970833e-16  4.5503807876686062e-12  -4.6151874786214069e-17  2.9708370822701773e-22  -9.9184805309790738e-22  -3.4292202176281725e-22  -2.5485869239694385e-19  -7.8314200511978881e-21  6.1759340227028166e-21  5.6220856385781739e-22  -1.7040699886064810e-20  9.3631962924939697e-18  -1.5883113880494117e-18  -1.6792218658553136e-22  7.9521580945231383e-08  -7.2926056798028621e-09  1.7117816771387339e-16  -2.6058744192678439e-23  2.6305555941250072e-22  -3.5386926786364599e-21  2.7982858219772385e-22  7.3993973454159393e-25  1.3758509103236699e-22  1.7714690287085981e-26  -3.3660695596329315e-10  1.8834720139748736e-10  -1.5986836366425712e-19  -3.6134390407971918e-18  -3.2884853414507662e-17  7.6230655542265218e-23  4.1078055851969650e-24  -2.3447257826124247e-18  2.9265447399100286e-13  1.8214357954899939e-14  3.1995507461226580e-12  -6.4136093441696475e-17  1.0816869678252903e-12  6.3931119369747245e-12  2.8986043648720837e-11  8.7871355247469075e-18  -3.3055548379100324e-20  -3.2974785861155384e-20  2.1464915174870901e-21  3.4491452019636565e-21  -3.4996160322925523e-22  -3.7659875339870034e-19  1.2050807258904950e-23  2.1207964527070188e-24  1.5030938727607775e-18  1.1317821452963885e-21  -5.4854271631260594e-22  -4.6583371074376980e-26  -2.1777469828281958e-23  1.3783809896095143e-17  5.9453022727600931e-25  -1.0173046059564242e-17  1.9446608153480670e-19  -1.2091960608832242e-18  -1.9558719691004111e-20  1.7196209588669792e-13  -3.7039702152490413e-17  -2.2635782240730977e-16  9.1293041301347655e-19  3.7848500955381971e-23  -5.3385339205724130e-23  -5.6365067223248851e-24  -1.1213505645618928e-25  3.8040314530546475e-24  -8.9405392041334892e-26  5.3969449860205893e-19  2.3706172095043845e-14  1.1486895406865530e-20  -2.1163641358592490e-19  -5.5637149620482313e-15  2.4522741051113997e-15  -6.5287031224109306e-19  -9.6271558566456685e-18  -2.2120918996823491e-16  8.4669033834474789e-18  -2.8848276239623675e-18  1.6464288549338426e-20  1.9676071998834595e-22  3.9359795307429620e-21  4.8220623834472787e-20  -6.3916979010685739e-21  2.3502257645250791e-22  2.3036606529932489e-10  1.0432354702944567e-16  -2.5347024500111519e-22  -7.4005859540375576e-13  -2.6066199028746841e-18  1.2911510232068068e-17  -2.0909367145835854e-19  -2.1623187452488971e-16  8.9548249725672877e-10  -4.5851489478520328e-27  2.9117352617659118e-27  -1.5941552553235162e-13  5.5164005747936877e-26  -7.2086511864106799e-21  1.0431298020843982e-10  4.5146550884567408e-08  5.5230327434412466e-09  -1.8584639042044023e-22  2.5120398802434307e-21  8.1920830623644003e-09  3.8837289151356374e-15  -2.5364134084067324e-24  -3.9237743244242026e-09  6.8860813066385381e-22  6.9688392268417094e-27  1.2139034253251983e-18  1.1130126637284764e-24  -5.9125090310395145e-20  -2.3897920081883638e-17  -6.6550235482042427e-22  9.4580723865512132e-17  1.1698907979897843e-22  6.6428668856704657e-11  -4.2247504702897457e-16  -5.6321437284474749e-09  1.0930077621222380e-15  2.0029876194626616e-22  3.6032699972605567e-11  -5.9769177924774047e-19  1.2481795763162134e-16  -1.2572874206404703e-22  -3.8144770086062172e-18  -3.7973720326329663e-21  -1.2562556677680009e-22  3.1764481393060210e-16  -1.4205487717296605e-16  -5.6944248482961222e-23  1.8854857978113375e-15  1.3285094059658592e-11  -5.2361963270986914e-14  -1.9291279764463407e-11  -5.1800792939696454e-22  -6.1420237601945163e-20  1.6912262793412394e-17  -2.5395775270458401e-18  -4.0848835940609091e-14  -2.2987282202295992e-20  -5.8137166191912521e-22  -1.2068914543236936e-20  -1.2541487442204442e-19  -1.2077813941457821e-18  -7.1844390268611188e-22  1.2183128344979890e-22  9.6763744899607534e-07  -1.2921046879635406e-09  1.5876926850510953e-12  1.5888327909864588e-11  4.2422178434424109e-13  2.1920517151193792e-12  8.1269925467513283e-15  -1.5601889100546086e-17  -2.3015747727780090e-18  -4.1641539953797861e-13  2.6862923378682334e-23  -1.6509040097062884e-17  7.8219527005351156e-21  1.5276692589065060e-13  -1.2364871696846389e-15  8.3780703779074360e-16  -1.4773765594716257e-12  -4.1904292588674381e-23  -1.9520069243110251e-23  1.8404541235224858e-15  8.2079466945661517e-18  -1.5302009209551295e-18  -2.8025455097914044e-22  -1.9178302009542307e-21  -1.4399153265992367e-16  -4.4090099696537081e-16  1.5855930846781789e-22  5.4180238382515768e-23  -2.0666556539436445e-20  -3.2485174455895716e-16  1.3472063692958008e-16  1.2449535423669020e-16  -9.2090759402396444e-17  5.8667059433766134e-13  -1.0335280772064646e-16  3.7270733530200983e-14  3.1460707735670339e-26  6.1748947432909301e-23  4.4532287115907315e-22  -4.8941017063940188e-20  -2.4976791127812616e-19  2.4497919613338772e-23  -2.1804475347423949e-25  -4.3604252131880155e-25  -6.9072113700300969e-24  2.4717611801491743e-16  -5.7752572929630394e-17  9.0788166954336566e-18  5.3080373737996058e-14  5.5043200969441696e-14  -2.3927523087019164e-15  7.7478248775627685e-21  -9.7327509717901558e-15  -1.7481697815760714e-19  4.5380564714299903e-15  -1.6837884109138019e-24  -3.3283177485395626e-20  -3.6764051958926559e-21  1.5455028610196121e-19  -3.2735658261327930e-20  2.4291854630451663e-19  1.7021378913447448e-18  3.5792321769986640e-19  8.6880247158081200e-19  4.8619571257559829e-19  5.4892132320029621e-18  2.1733034764366694e-24  1.9899086061579371e-28  1.7028769071323832e-21  1.2757133158010840e-20  -9.6358232270646788e-25  7.4415285573409426e-22  4.9839907168723107e-24  1.0967369199600584e-23  -6.9297352493116621e-22  1.0507182240776675e-22  -8.0862821036461958e-22  6.9964940142995856e-22  -2.4641255092624097e-21  2.4990558882937271e-26  7.3068768606670169e-23  1.9792730802605737e-24  -7.0929037225748634e-25  -5.6649463181097489e-22  -1.9958972795514100e-09  1.9080776064543862e-14  3.7529574341222958e-14  -5.8531914312758332e-17  4.5553495136080536e-24  3.4342996873378003e-23  -2.1069515484924678e-21  -1.6725136826415380e-26  -1.6902649133105707e-12  9.4110091646883300e-18  -9.8824310576630125e-23  2.2858801037281139e-11  7.0709903982020625e-24  2.5830142324931051e-15  -7.5277060