<?xml version="1.0"?>
<VTKFile type="UnstructuredGrid"  version="0.1"  >
<UnstructuredGrid>
<Piece  NumberOfPoints="3002" NumberOfCells="5870">
<Points>
<DataArray  type="Float64"  NumberOfComponents="3"  format="ascii">323455.6100285493 6048753.88242996 0  323455.6100285493 5954782.59950515 0  405920.1480513444 5954782.59950515 0  405920.1480513444 6048753.88242996 0  405920.1480513444 6001768.240967555 0  323455.6100285493 6001768.240967555 0  364687.8790399469 5954782.59950515 0  364687.8790399469 6048753.88242996 0  364687.8790399469 5996367.117560402 0  323455.6100285493 6025261.061698757 0  382226.6271443229 6022560.499995181 0  405920.1480513444 5978275.420236353 0  323455.6100285493 5978275.420236353 0  353897.8957397301 6022560.499995181 0  344071.7445342481 5954782.59950515 0  385304.0135456456 5954782.59950515 0  405920.1480513444 6025261.061698757 0  354379.8117870975 5975574.858532775 0  381582.8168806895 5978840.396198289 0  384950.2598624413 6001768.240967555 0  344643.0480768835 6003429.02033719 0  344071.7445342481 6048753.88242996 0  385304.0135456456 6048753.88242996 0  339717.0321562298 5986078.187627405 0  337515.036058786 5969821.016310448 0  368062.2614420265 6013076.224998265 0  368062.2614420265 6032044.774992097 0  393987.6142659165 5988729.699941677 0  405920.1480513444 6013514.651333156 0  392856.2821527076 6034589.119828064 0  393514.9611654527 5968369.338068204 0  339399.8087404341 6032061.482581838 0  323455.6100285493 6013514.651333156 0  374995.9462927963 5965504.865595459 0  354379.8117870975 6037976.901948514 0  338123.9088969378 6017031.529131207 0  367397.3120126425 5982072.559192053 0  351882.5752379905 5991998.990225234 0  376945.425450199 5991232.708824487 0  392265.0061656896 6013300.936254065 0  357029.7426706699 6006608.947964352 0  380093.6207558212 6036880.127749795 0  323455.6100285493 5966529.009870751 0  405920.1480513444 6037007.472064359 0  405920.1480513444 5966529.009870751 0  323455.6100285493 6037007.472064359 0  333763.6772813987 6048753.88242996 0  405920.1480513444 5990021.830601954 0  323455.6100285493 5990021.830601954 0  362879.3643765316 5966837.319094267 0  348367.6438548031 5965604.161682394 0  334493.1989038612 5996935.948935225 0  395068.5043068817 6023875.372615605 0  348216.0324377587 6013504.844950221 0  379305.9090074943 6011603.390019651 0  372523.5158233726 6003480.000732267 0  395435.2039568929 5999384.346358113 0  395612.080798495 5954782.59950515 0  333763.6772813987 5954782.59950515 0  395612.080798495 6048753.88242996 0  374995.9462927963 6048753.88242996 0  374995.9462927963 5954782.59950515 0  354379.8117870975 6048753.88242996 0  354379.8117870975 5954782.59950515 0  335074.5981535012 6007206.680367459 0  391925.2695590468 5978591.908877409 0  371969.1707190623 6022560.499995181 0  383872.162544519 5969415.106147043 0  358038.7139835292 5984533.09712744 0  369699.869182786 5973102.2359358 0  369841.9126663716 6041099.453006387 0  343176.7440329155 5994428.220622956 0  362933.5332293962 6024385.235173292 0  330640.1760208776 5984148.625419154 0  348684.7494355051 5983110.856817525 0  399094.9690929834 6007537.420809742 0  345447.6324516311 5974162.84917082 0  332859.7749513451 6039150.972778062 0  344517.044630671 6024057.945416138 0  332973.1214415312 6025037.914505113 0  341428.0126373461 6040493.820728126 0  385874.264691618 5992757.40885039 0  350337.3662538711 6030387.535304286 0  359887.2373602368 6016186.250094838 0  377097.8989316926 6029115.217702097 0  338917.7109078235 5961484.016839475 0  329495.5261590715 5972402.215053552 0  336644.7280634616 5978216.610794215 0  330688.6715098422 5962480.256438018 0  359899.8039476132 6031963.415584587 0  399746.255941904 6030426.523907755 0  385511.6875144855 6030368.508996127 0  387377.735783329 6040763.821024337 0  398832.192399829 5974431.100387635 0  387992.9498994246 5962432.032572681 0  405920.1480513444 5984148.625419153 0  364925.7641745284 6005782.953640081 0  361769.877068089 6041226.651684469 0  398452.9199001931 6040850.732439541 0  398946.6205243983 5962252.502309519 0  362305.5577564609 5975984.89789681 0  356822.8065216601 5998470.186307689 0  386900.7115926162 5984820.732438302 0  329528.0119279922 6032067.230024892 0  331139.6939744562 6013813.572928222 0  398457.5876798834 5982541.698799337 0  405920.1480513444 6019387.856515957 0  398685.5166750694 6017257.578706384 0  348587.9424884976 6042755.309150081 0  369841.9126663716 5960143.732550304 0  380149.979919221 5960143.732550304 0  359533.8454135222 5960172.384722514 0  377147.8814772839 5972649.581024994 0  341756.3455763521 6010124.092444684 0  355615.8176864882 5966311.193813809 0  369144.4338274571 5989807.770003954 0  375185.9047422862 5983510.422041401 0  323455.6100285493 6007641.446150355 0  391856.7960121195 6005888.565703365 0  371978.0245217044 5996361.134308098 0  405920.1480513444 5995895.035784755 0  378877.1880032702 5998073.745937059 0  359056.6617417652 5991643.489540118 0  399278.8743430426 5993436.466134224 0  386116.8775939071 6009922.097099247 0  323455.6100285493 6019387.856515957 0  388994.7833819839 6019826.789191471 0  348897.6207366391 5998116.079250046 0  345456.3301153719 6035064.814295612 0  323455.6100285493 6042880.677247159 0  334124.3013408988 5990072.953472659 0  377097.8989316926 6018059.782440464 0  323455.6100285493 5995895.035784755 0  342871.8474798963 5980154.238874755 0  373596.9793292385 6035659.183886081 0  380149.979919221 6048753.88242996 0  376327.9292813152 6042294.581731233 0  329163.3548105369 6004704.843558955 0  350303.9432136903 6007093.032074522 0  383982.6552804571 6015912.664375832 0  345515.490569988 5988567.439252969 0  379019.812877927 6004678.052169549 0  365541.9137639466 6018750.691894444 0  349225.7781606728 5954782.59950515 0  352493.3399767278 5960815.406895458 0  363683.8130458911 5986976.225872464 0  386666.791301207 5975084.583584332 0  368937.6553346639 5966171.092344863 0  400003.9882214358 5968352.273777306 0  328776.0063842635 5992958.433193355 0  339958.4428758043 5999572.344589042 0  354577.7732363954 6012555.454074449 0  328609.6436549741 6048753.88242996 0  382053.0280278458 5988228.496807038 0  330708.6817934912 5978212.973348036 0  372084.7734679543 5978495.086505585 0  358568.2738174705 5971419.415228934 0  328931.2672829705 5998832.905089681 0  323455.6100285493 6031134.266881558 0  405920.1480513444 5972402.215053552 0  405920.1480513444 6031134.266881558 0  323455.6100285493 5972402.215053552 0  405920.1480513444 5960655.804687951 0  323455.6100285493 5960655.804687951 0  405920.1480513444 6007641.446150355 0  323455.6100285493 5984148.625419153 0  405920.1480513444 6042880.677247159 0  346648.7613474604 5960023.05127712 0  342415.3891593561 5966358.988213831 0  350507.6510228226 5971111.740321856 0  391773.9667214506 5994456.117700323 0  338875.8905424621 6026088.827345025 0  361429.1735454847 6010511.262533597 0  389395.7028803263 6025805.543023561 0  392895.6464692951 6043315.288173481 0  332846.8296575367 6019296.633131165 0  373337.4404588729 6009693.515402478 0  336544.3064612215 6043648.151399015 0  348610.2411382072 6019567.839754772 0  381943.4597763228 6042183.394750732 0  355630.0631288611 6028071.82801846 0  363941.5238882306 6035967.852698964 0  328179.67203552 6022271.326978176 0  401066.2857736665 5998807.415073814 0  344387.1099621175 6029612.545574771 0  393435.2235156003 5960233.556458537 0  400735.9970493424 6022675.638064924 0  393708.5772019727 6029179.837160029 0  400609.0696943338 5987857.851798974 0  361753.6614662939 6001152.171757337 0  400766.1144249197 6048753.88242996 0  353363.0524357285 6002630.165620538 0  343248.328463803 6018790.640008039 0  356419.8105951758 6043365.392189237 0  390234.385899412 6000759.497967276 0  368336.1168551637 6000220.532318851 0  328609.6436549741 5954782.59950515 0  387520.8298169724 6035372.992507171 0  400588.0280660195 6035823.299583429 0  329021.6598427091 6043194.252697862 0  393371.710206733 5983576.325812268 0  393638.9721728675 5973623.513063556 0  371727.9212466564 6017113.044457142 0  364687.2762977295 5959941.212693035 0  374995.9462927962 5960346.83186599 0  369841.9126663716 5954782.59950515 0  400766.1144249197 5954782.59950515 0  338917.7109078234 5954782.59950515 0  369841.9126663716 6048753.88242996 0  359533.8454135222 5954782.59950515 0  390458.0471720704 6048753.88242996 0  338917.7109078234 6048753.88242996 0  390458.0471720704 5954782.59950515 0  359533.8454135222 6048753.88242996 0  380149.979919221 5954782.59950515 0  349225.7781606728 6048753.88242996 0  339867.4956514095 6005339.817053361 0  333737.9460226952 6002130.523287664 0  336955.8140048417 6012008.440073739 0  377097.8989316926 6023232.32559834 0  371748.9790486701 6028016.629988787 0  338146.5171983215 5993298.164761053 0  355016.8390227688 6017610.913088997 0  393953.1528190996 6018968.416019509 0  335185.8133477239 5965142.63403323 0  328616.6041642396 5967263.80307608 0  380314.9487662361 5965460.362415641 0  354622.8993466098 6032976.142863722 0  328521.4725131759 6027215.026914048 0  334465.0783479523 6034070.534389696 0  328123.6212682287 6009699.206425843 0  381889.5169855529 5973936.741901617 0  359122.3484437474 6036790.002992895 0  386341.6533148278 5979963.279841923 0  400798.2159679119 6012477.871311778 0  388538.3765260249 5967461.292146791 0  340833.8784183678 5975728.708105717 0  355307.6239213505 5988552.151815021 0  362181.4274823388 5981261.937800813 0  353784.0322742948 5981044.538811012 0  358045.1698423899 5978741.391518688 0  328423.7350325213 6036912.015930048 0  366897.6876966125 6027277.723668203 0  347355.1745641421 5978532.307510624 0  376820.5060332146 5979033.270735624 0  349378.1778589479 6024378.632814493 0  327189.2282939323 6016451.253924556 0  338433.8773236172 6036753.902881841 0  350141.9760340559 5987605.90026687 0  363794.7083927878 5991713.491814731 0  350325.1285660182 6035273.515460094 0  382355.9358007369 5983507.499638396 0  327107.0747437811 59811
[...]
<PointData  Scalars="f_71083-1"> 
<DataArray  type="Float64"  Name="f_71083-1"  format="ascii">7.8085766412701602e-22  2.0050953162619396e-22  -8.0874529867554932e-18  -3.4792513396934608e-20  -5.3484605381970896e-11  2.3028980071606143e-15  7.0146963436961889e-15  3.9065837172331502e-17  1.3045173826989882e+00  -3.0772150040073789e-17  2.1528437741926694e-09  7.0262321878678616e-12  1.3026954691513226e-17  3.5697255587206382e-08  3.1237139928730877e-18  3.9266001785709450e-14  -6.1011387915354047e-15  7.1510540528430221e-10  1.6352734470642581e-05  2.7046592195911238e-03  1.0094031500358003e-07  -2.4977424707052715e-18  2.8007934349513642e-17  6.0123019163228067e-11  3.0470680192906878e-16  -1.2060117289187381e-04  4.3602770745359503e-10  4.4941130807957814e-06  5.3130517174295651e-12  9.5717057927234127e-14  4.8327786722718474e-10  2.0111365433671587e-14  -9.6204223287747245e-16  2.4451322556955832e-10  2.2170736956538869e-12  4.7900387807477307e-11  6.8777438473460525e-05  6.3534831403204407e-06  4.2181585658770597e+00  2.0682077506718803e-07  2.5387710532627158e-04  5.5952022482388662e-12  -1.8680869037753211e-19  -2.2017905001842369e-17  -4.1414297591732857e-14  -1.8893541183041190e-18  1.4782434889276367e-20  3.0574171697118382e-10  -3.3464928357744033e-16  4.7769047767841711e-10  2.2662785752813990e-14  1.4123917782060375e-11  3.7536268009377932e-12  2.3409185060519522e-08  2.2153038754923993e-05  1.0224451856199555e+00  4.9876179925790846e-06  3.6433482547372587e-15  -1.2494638047320011e-19  6.2951960511939676e-19  -1.5593581222968240e-16  1.4109874570465791e-14  3.0983749962163097e-17  4.0728617373403479e-17  1.3477488774206867e-11  1.1374087762292655e-07  -2.5721069673430476e-08  9.5643860086654244e-09  5.3793704845366053e-06  2.9121166419322396e-07  7.0415546926426250e-13  7.3690428262207781e-08  1.1158115335311389e-07  1.1560349108762248e-15  -6.7264769865893420e-10  7.2907957190984547e-09  -1.3409472715049683e-12  -4.4158160424626938e-19  8.6352695868614477e-12  9.6320848290762176e-14  2.7130268653726849e-17  -4.5367142771432136e-03  9.6721125274275113e-11  2.2382350638315665e-05  -4.9317892198218202e-12  2.8623895086946312e-17  -3.2841759206145684e-17  9.7564470878657274e-13  4.3746486563988493e-19  1.8913546506949193e-10  1.0420470696834682e-14  8.9718710494037207e-11  -1.6433453307802417e-16  1.0669282314528753e-10  2.9670529561156685e-11  2.6579828068368416e-10  1.7300063204761813e+00  4.9604824420798966e-13  -1.8563986941042917e-17  9.9808098874562976e-14  1.4443573704583201e-07  7.4637090598800720e-03  1.6593831581680196e-04  5.0369800203161190e-17  1.0589385296578200e-12  4.2778730758005561e-09  1.3952632521795366e-12  4.0988479392206521e-10  -4.3715284315199432e-16  -5.4627632776890336e-13  6.7177687379810100e-12  6.1195162634242471e-14  5.9752586827613327e-08  8.9058945869396171e-09  1.4223068926409090e-11  -5.9840430387451387e-03  2.7331456609944746e-04  5.3698746589400484e-15  4.9502929248369516e-06  5.9669300097351909e+00  -9.9858777928544956e-11  2.5146450687881874e+00  -2.5518973871317262e-04  1.9452938411906366e-07  -2.0057035494260967e-06  1.1547461213746816e-16  1.9941515586814895e-09  -5.3067575617421445e-07  4.5020214352137574e-14  -5.6577028013540001e-20  -5.0368475788515903e-14  2.5967731909082991e-06  -2.2910166876062739e-15  2.4843597649906356e-11  3.0781002840249300e-12  -7.7295015940736540e-17  2.0460793026107681e-14  9.6724224246994134e-13  4.8314078308910844e-06  6.9211616792540520e-08  4.8963784296305396e-09  4.1734778783716299e-03  4.9386600569446262e-06  9.1770269907932957e-18  3.6621383189750737e-14  -7.7132438050512929e-05  4.8163889833366030e-07  4.2183098645268976e-10  3.5126333417388784e-13  5.7144692527303897e-13  5.4454455337379210e-09  6.0191991642301802e-06  1.1836083160699398e-21  -9.2664941103678226e-03  -1.9709959801384033e-17  -2.5322551381657525e-06  1.3974591014437583e-10  3.9351792654776134e-13  -3.7889011854272141e-18  9.6989912043574222e-13  -1.1380761514656979e-15  1.0015259596630144e-18  -2.5119357278394032e-16  -5.6125722359686737e-21  5.8365106509374661e-11  1.9708266732030891e-17  -4.9038560285607465e-19  2.9458699783309683e-16  3.0591013481643949e-15  1.1957328369691927e-11  7.9096505569704255e-05  8.5119094855840794e-14  -1.8106899900210895e-04  -4.4308352023661893e-13  -3.5625983914982889e-17  9.6054927915051420e-13  1.4505071384554589e-03  -2.9968658748940960e-19  1.4855535494790829e-10  3.9044499571901248e-16  1.4415193529281484e-09  2.7873507512950731e-12  5.2480051221240071e-16  -1.1823413465770684e-09  -2.0259447545988059e-13  4.6524568544552337e-13  8.7409702933157589e-13  8.2432356408076232e-14  2.8753100927784485e-10  1.4041399754555408e+00  -2.1507001355383480e-20  2.6946059777598416e-04  1.0377891807922939e-09  1.1889323264285805e-15  -2.6324611395517585e-06  7.7434628934391254e+00  6.4310885719341884e-21  6.6780574695021550e-13  -4.5786113988729978e-17  1.8975400510604463e-20  1.8450338432987776e-09  3.9319829162666067e-11  -1.7371363428998336e-06  8.7521385741504234e-14  9.5666510389257201e-13  2.3408273760629951e-15  -1.6049945225717653e-15  -2.4864690680782335e-18  1.2124572246494263e-16  -9.7197657860190230e-16  9.7185344180341218e-19  2.6859945671582980e-19  6.0095771933233919e-15  -2.0708773894282121e-17  -6.1684970074521391e-15  1.7698300236224873e-17  8.5063960978807921e-09  7.9411958213734468e-11  2.5615509469301725e-11  3.8254273329231301e-08  1.7724946834659810e-09  1.5825074802306039e-11  -4.2059146451515578e-08  2.1910009639835558e-10  2.9308322043531623e-17  -8.8237399988122578e-19  2.9953292061871469e-10  7.7012040306683909e-11  1.0521383602936932e-16  1.1987805184212327e-17  1.7447326284685697e-13  5.7965194378053005e-08  8.8858331889140509e-12  1.5791799423755358e-05  2.2345140772548021e-10  1.7975761781834177e-10  1.8241335929030233e-12  -1.3823529060387343e-06  1.4057723482071464e-06  1.3289812801538085e-08  2.2908025566138323e-08  3.6012256000108763e-19  1.2287030980735016e-08  -1.7814427744384225e-11  2.6860351120913157e-05  -8.3792539289440333e-11  2.0356560864763780e-15  -9.7603569257973662e-18  1.3412560575750584e-07  1.8201748392955325e-02  5.9650132548597213e-13  -3.9604592764645394e-04  -9.4442045892605292e-18  2.1235095868810200e-12  2.4817062948857346e-13  3.8158543584993015e-01  1.0904771133850709e-08  1.2042394658826668e-08  3.3553316379226232e-06  1.3862780457894525e-14  3.5054033150020342e-16  2.0385874548761396e-11  4.2451840059366621e-17  -3.7621379610384489e-16  2.1957608739128473e-07  1.0666947265637579e-04  5.3631957724992743e-16  4.7117561454678263e-03  1.2534077088442602e-12  4.2557319089768197e-07  6.2200722990823709e-06  2.8161618054826913e+00  1.1011215706210165e-08  6.5012672552347333e-14  2.9728505508334512e-07  6.4395765629818353e-09  3.7496104642208165e-07  1.0391731030739203e-07  -2.7606291257280998e-05  7.7551864938440351e-10  6.4361869052909654e-09  1.4755212265569668e-09  7.7623910403163229e-06  7.4065205069278212e-05  -2.0181935764388833e-04  -4.1993450841407405e-17  2.8030227414783686e-08  7.5279723480680739e-19  -1.9851666741497048e-14  8.2728553013809210e-08  1.1996846833143222e-10  1.3809341244351076e-08  3.3768787362568348e-18  1.3578297494262501e-09  8.6120379991911293e-11  2.3891585151514273e-02  1.7358432520281080e-12  -2.3306174373619787e-19  -3.1016796021204330e-17  2.0794787338999847e-04  4.6888441618028986e-13  7.7550938856567100e-12  7.8779792322104275e-18  4.8855673322250358e-10  -1.1506054175646079e-18  -4.7128106257970011e-18  5.8639049049347017e-20  1.9770893507938752e+00  -8.8067966919068288e-17  -6.3515743375161630e-03  4.6868228307346592e-16  9.3573074160339177e-20  -5.4847636929584713e-16  9.3721418749167185e-12  5.5231700966912562e-13  3.5756476427682140e-14  3.3921543156264173e-08  1.8561950145197287e-11  1.3266714161329422e-15  4.5872886008887637e-14  1.6663729975227930e-11  1.3122444634138967e-04  1.9874239135595738e-02  7.1261557300091871e-03  8.2198178177120511e-16  6.8685927322140961e-10  1.6496346341226110e-12  1.0183022112452827e-20  -9.1306984412820046e-19  2.4057939672943935e-11  3.9366098293073224e-11  1.0353976964903740e-11  2.5279644116433126e-11  -6.2312066924112949e-15  8.2689810789775916e-14  -7.4439038331508262e-16  -2.4071019201673846e-03  6.5740104960065563e-09  8.4096197598007888e-13  1.3476154271025825e-07  -1.8400597311934968e-03  -2.8747539738333281e-03  1.4185437592160872e+00  1.5871964893377617e+00  -6.5739720766558092e-16  3.2366498072117197e-06  4.7550868693687316e-10  1.3645893096044409e-12  6.2911357805303385e-11  5.1209101970248285e-09  -2.5373184611620130e-21  4.3838501351651543e-19  5.0573731460964396e-06  1.5327671346890322e-13  1.3019733076295679e-11  8.3728087238908936e-05  4.7453556999084144e-14  -5.1780109999032073e-08  -1.2642993371217130e-15  2.5598606550129483e-08  8.6860960450031966e-08  -5.7004887014132460e-16  3.0955993036191395e-18  5.9381414803141202e-03  1.2841742628748141e-07  3.8205180711711850e-12  1.6282171467167318e-11  8.7894143713391699e-12  -1.5863864073726414e-20  -3.1170382578890684e-17  -1.7780960830208408e-15  -6.2065268637630641e-03  4.0449315504953866e-09  2.6180089987702006e-16  1.8882175230155641e-14  9.8188166319117492e-12  -2.3484099456249396e-12  -2.2870852389776586e-14  3.3860786148311582e-13  4.8880621112274234e-06  2.8770995413548520e-06  1.2961651700943610e-10  -4.7130774050060665e-17  1.4274762178028058e-11  6.2417810192600141e-09  1.6581764738125625e-16  6.7654281769266534e-12  -2.6710124304851133e-04  2.9093032439829279e-10  8.4156212661219949e-11  -3.6618670380544531e-14  4.8956055546087811e-14  -3.0591851482452582e-19  1.8276768571081314e-12  1.7808676255741694e-04  4.3879178482052862e-10  2.4888470323963265e-12  2.4255123891804008e-09  8.0308936052624363e-11  -1.8380230776583166e-12  1.7251121527271745e-08  3.0739258105321610e-09  -1.0341328446164637e-15  6.3088493440671660e-12  1.3733348803719641e-06  3.3138775424239536e-08  1.1884230685502558e-08  6.0182183174923376e-06  9.8840746053775313e-05  -1.8715263704746537e-11  4.8807261160920486e-08  2.0193731943248233e-13  7.6262868742969793e-13  1.9968621803110063e-04  4.6080946802749134e-18  -1.1688776226496134e-04  6.3390144136859297e+00  4.1301882151853717e-18  2.0971488249070283e-14  1.0962890789984225e-06  1.4151907929229690e-09  -1.4035723936004776e-04  5.6253340262546023e-13  -1.7831497343925403e-16  1.4556132107325813e-16  -1.3633778006015520e-16  -6.2467783214848676e-16  6.0644568771211213e-09  2.3374368570272201e-08  3.4151896815892817e-11  2.2720562697000922e-10  -2.5212400916070230e-16  8.2362903508934463e-06  1.7865547025232661e-07  -8.0020511505706250e-05  4.3043084301769921e-09  1.1140661032390493e-12  2.4654821158053708e-09  3.5499635738736631e-05  2.2976337660777577e-06  3.1368982578682577e-04  8.1550638375822478e-09  4.6930332480699751e-10  4.4211129685949286e+00  6.6064625587352976e-19  1.6270497977111830e-09  6.5011963601834986e-10  2.6076623344501758e-07  2.0961659839167534e-15  4.0212953157764919e-12  2.4440730311253976e-17  5.7732831084481724e+00  1.3041925899662519e-05  1.6958044181046984e-12  5.8645121004304233e-08  7.1507901923981611e-10  2.7156328547545953e-14  -3.3248572306974352e-09  2.0915622902482971e-11  -5.5339840781113890e-06  3.1150297187316185e-13  2.0795576065692397e-14  3.2426156147732079e-12  7.6804129619572646e-11  -2.8954584522314939e-18  -6.4812006787130561e-12  3.0951644964265040e-14  8.0410769550667790e-10  3.2452784781992692e-09  -6.9409426200090920e-08  2.1061021101756705e-13  2.6126015942007817e-08  1.2126951199416556e-09  -1.0594350469584046e-18  4.9641768118188585e+00  9.6080630946348824e-14  -9.7891736600491098e-11  1.0504793026303352e-11  8.0003862808980451e-08  4.8528005200283440e-06  1.5857664270680587e-16  1.6428956178680674e-08  -9.9756782015093960e-03  1.8945118036194915e-13  1.7952434831983341e-10  6.5647729894747454e-11  -4.3379316733841464e-13  5.2111984319109976e-14  4.4169805106697101e-11  2.1642638659741148e-04  6.1179662773293133e+00  2.0194158926215291e-10  1.0644571924435684e-09  1.4796262206439594e-19  5.1568513708683847e-09  5.4048097341080080e-08  8.2999218773404577e-06  5.0082826904923980e-14  2.2437025432687865e-14  7.0146852655310443e-15  -3.6193748648775111e-08  1.4636646600270742e-17  -6.2831528486561945e-18  -1.6481808397332728e-17  -1.0437717639419423e-16  -7.1157774816261096e-08  3.0716200005160717e-05  -8.2138218524693726e-08  1.0958766834904807e-14  1.4565476333606597e-06  4.7352856763684456e-12  -1.0933389732908395e-09  1.7206626094300676e-13  4.8405473546316529e-04  3.3450437234177999e-06  3.4846364003329036e-09  7.0249858932936542e-10  8.2609926276273341e-09  1.0267212086727846e-08  5.6677020613252367e-02  1.5696623234591738e-02  3.8742551636680473e-04  9.0638807400630315e-07  2.9116445995601491e-14  1.1258133203585353e-03  -1.5201520002745294e-17  -1.6985738189702813e-15  8.0351028835964456e-14  2.3829397487491363e-14  1.3315524659789224e-14  2.6621439241840940e-13  -1.3857186701216944e-20  1.2364052216946760e-06  3.5686740714827310e-14  3.5361445972335198e-18  1.7724857877280716e-16  1.6090069879638080e-13  1.7720796572478180e-12  4.3298992391412051e-10  3.4694791574379557e-22  -2.2984852390327157e-21  1.2995113119589075e-14  -2.2574545743132666e-22  -2.6367839187095102e-06  -1.4159831071477383e-05  1.1117228690333818e-04  -8.5183546192503214e-05  4.0380540172557322e-13  -8.1247569336327733e-05  3.4097607991365088e-18  -2.4193487046654449e-08  2.8155557017027811e-11  3.8976649235471123e-10  7.6010352681272584e-11  7.0141185905504167e-12  -3.4099349981501977e-08  -1.9817728494524536e-19  -1.8934737000598339e-18  9.4967896136278874e-17  -1.3719796523716166e-17  1.3826972856061722e-15  8.4887887493152947e-12  1.6206139365285329e-08  1.0228341256970150e-09  2.0463805665132022e-17  8.8171827390609454e-08  -1.0587943683852337e-09  8.6636477695368150e-09  2.7832277087614781e-04  5.1962327264526053e-10  -1.7788343613489605e-18  6.6220219349026277e-15  -1.8505638553099534e-16  8.5067938842074180e-13  6.5624361122948405e-12  9.7378597511830844e-14  -4.1176045336623093e-16  1.4601294608119995e-12  1.4224426355463549e-11  1.3016623397686641e-12  8.9687504782044969e-17  5.8535588202292592e+00  -1.2966334548978949e-02  6.4413369735128100e-10  3.6834220763487839e-19  5.3105219709499598e-17  -4.3151427780815654e-16  -6.7528403780165820e-16  -7.1025848800101779e-20  1.0660328541008177e-14  2.7489122149447368e-20  -7.7251240239759010e-03  6.6266788195990134e-01  2.5655852727754481e-13  -1.2606174047711043e-13  -2.5491082355224331e-11  4.8885382715909026e-16  4.7688004460710458e-17  1.1618202138286507e-11  -2.4857790199938930e-06  -7.6117609431140172e-08  -3.4264732777458710e-05  8.3258012892570295e-11  -2.3319748778419081e-06  7.3135314849131373e-03  -1.1147552173793904e-02  2.7725239026882994e-11  2.1525507179475090e-11  7.8595322207999886e-14  1.6840041534825347e-12  1.2244803274810032e-13  2.6338615829111387e-16  3.0927978144829299e-12  2.6615359633877391e-16  -1.8603472359556351e-18  3.7628878155596784e-12  3.9561472950230346e-14  2.3024838506057157e-14  4.4681230273475281e-20  1.7155210662578755e-18  5.3228420358057793e-12  -3.8886107269273377e-17  -9.8378930627156918e-11  1.1068043404790039e-12  3.7962122008542822e-13  2.3858220211152493e-14  -2.4407348766466621e-07  2.3800089076072419e-10  5.6523900329443838e-10  1.7959922538332928e-11  4.2596467389031367e-17  -4.2138213610278571e-17  -2.1157623995865937e-17  -1.0825002687341307e-19  -3.7401325483128316e-19  3.7743850228735019e-19  1.7972626903892143e-10  1.4478131747692787e-07  6.0212668277423748e-13  2.7319773698378365e-13  1.2736552532239048e-07  7.3779664769148801e-07  4.0369018981369076e-11  7.0013739699588590e-11  1.9974877232489079e-09  2.5819947694305623e-09  5.0562663987065355e-11  1.4510991972013398e-13  -2.3827329138034524e-16  -1.6863053206663751e-14  2.1727428969442078e-12  6.7491315847136385e-13  1.0022565586185614e-15  1.2984220392792456e-02  4.8464474612539715e-10  2.6694395145881805e-14  1.4578762354424847e-04  5.2071741502233566e-13  1.6362499341849518e-10  1.9579798652383553e-13  4.5210046170744259e-09  -6.7469505785228284e-03  1.0810379355377829e-21  -5.0706481510704586e-21  -3.7491502713545123e-06  1.6443513603479404e-19  1.3868764021213383e-15  -1.5943989765569316e-03  2.2844229069932087e+00  9.7455832005082010e-01  -2.7241728138306694e-17  5.3096935243358886e-14  1.3203235772957844e+00  6.4637520218580695e-08  1.8908160064053358e-17  1.5026606162610098e-01  4.0368264059892083e-15  3.1780824241417785e-20  1.0430987818697114e-11  -8.2170901063510990e-18  6.7465608460722206e-14  6.2894720392880111e-09  7.0856675263494236e-17  1.5706417930224351e-10  -2.8237710573052754e-16  1.5841565072141545e-02  -8.3299526461313323e-10  1.1797069608935269e+00  5.5271448328897278e-08  9.5473223973613867e-15  2.9968723504884544e-04  2.7881678256608896e-12  1.4516448994114536e-09  1.6474988643518644e-16  3.5828274952523704e-11  2.6424593692102007e-16  -9.2173185919713197e-18  -5.1094265398864652e-10  2.9872980321884014e-09  -2.6015517133338087e-17  6.8562639159059593e-10  7.1467351674558857e-06  4.9762680753538527e-06  4.4950779485380623e-04  3.0963825373723587e-14  6.1057572959205739e-13  2.2587519036515834e-10  3.1304665841216258e-10  2.9559642211478911e-04  1.5192286095708330e-14  2.3654296334584732e-13  3.9986074240723281e-15  1.2973227308254858e-13  1.2144321989493431e-12  3.4295718730147349e-14  -4.6199918218374387e-18  5.6261598996070168e+00  -1.0969078922481376e-02  2.9028924685696922e-04  -7.7824215766686750e-05  4.0826860508587507e-06  1.5246066946751611e-04  1.0986963949964691e-05  1.2134661885201922e-10  1.8539945848597896e-10  6.4588332724674512e-05  3.8035210814905021e-18  7.7423726427874165e-10  2.7711809754607017e-14  1.3876434182833518e-07  7.6842400186129100e-08  -8.9103023990204185e-09  -4.8735073202027012e-06  1.9315905961209987e-17  -4.8316546965206338e-17  4.3447382840461475e-08  -4.6738259986339140e-11  -3.7823013772324015e-12  1.2826316841086962e-16  4.2095926778172046e-13  1.2261170457591033e-08  1.0446964120420576e-06  1.3421711416156818e-16  -4.0401171787220131e-17  7.3441207868288908e-13  -9.1328128750735451e-11  1.0957874721330158e-09  7.0968584867264284e-11  1.3550287522482135e-11  2.3542839937489367e-06  4.3054914491300638e-11  3.1411162822596783e-05  -1.1797195304923376e-19  -2.0014058252030814e-17  -1.1195216919969820e-16  3.3983130840860525e-11  9.7062124576305213e-13  -5.9574281229016800e-18  -4.9666425630546252e-19  2.2739998774680001e-19  8.8986260010190089e-18  2.5793059504740421e-09  8.2062226457600985e-11  -3.6196834133690842e-12  5.4908210870226587e-07  8.7800029045571793e-08  9.7179633900503060e-08  1.1736172775488182e-13  1.8623204590957725e-07  4.4393182118446880e-14  3.3143676785688159e-06  -2.0003040025616325e-17  6.7224995996418142e-14  2.2844027243587929e-13  -4.7701810307582459e-13  -9.4231487583918714e-14  -3.7713947865288224e-14  -9.8750186421861499e-13  1.0909210494514310e-11  3.0322790026051678e-11  1.9262007499485883e-11  2.7625758684897450e-09  -3.4426006946703970e-19  -5.8695402692750048e-22  -3.3716599052781774e-17  6.2672168856821386e-14  -6.6582974514001725e-19  -4.4362634670455158e-17  -6.2548133573311060e-18  -6.7980826073703525e-17  1.4323110313441888e-14  3.7978877807237312e-15  1.6933114111402736e-14  -8.6925379130401087e-17  -2.7137007035661193e-15  1.1420455991324007e-20  -1.1717050324763791e-17  -3.7656704009685357e-19  5.0577178123854456e-19  8.7307621396212427e-17  2.1113327742163279e+00  3.5868478943716862e-08  -1.2159780661324513e-08  2.6509732690973557e-08  4.2081572176742221e-18  -4.4159181224151677e-16  1.8645396038896461e-15  1.5734761922933638e-20  -1.8809832600940091e-06  1.2276864206614197e-10  -4.3240045641442535e-18  2.7406074212954790e-05  -3.2275194831836237e-18  1.8055026885209944e-10  6.8987351547325380e-12  -1.0489238121901044e-07  -5.5081616956589714e-15  -2.7699659709490998e-04  1.8043303281847964e-10  7.7816634522055852e-12  -7.38456