<?xml version="1.0"?>
<VTKFile type="UnstructuredGrid"  version="0.1"  >
<UnstructuredGrid>
<Piece  NumberOfPoints="3002" NumberOfCells="5870">
<Points>
<DataArray  type="Float64"  NumberOfComponents="3"  format="ascii">323455.6100285493 6048753.88242996 0  323455.6100285493 5954782.59950515 0  405920.1480513444 5954782.59950515 0  405920.1480513444 6048753.88242996 0  405920.1480513444 6001768.240967555 0  323455.6100285493 6001768.240967555 0  364687.8790399469 5954782.59950515 0  364687.8790399469 6048753.88242996 0  364687.8790399469 5996367.117560402 0  323455.6100285493 6025261.061698757 0  382226.6271443229 6022560.499995181 0  405920.1480513444 5978275.420236353 0  323455.6100285493 5978275.420236353 0  353897.8957397301 6022560.499995181 0  344071.7445342481 5954782.59950515 0  385304.0135456456 5954782.59950515 0  405920.1480513444 6025261.061698757 0  354379.8117870975 5975574.858532775 0  381582.8168806895 5978840.396198289 0  384950.2598624413 6001768.240967555 0  344643.0480768835 6003429.02033719 0  344071.7445342481 6048753.88242996 0  385304.0135456456 6048753.88242996 0  339717.0321562298 5986078.187627405 0  337515.036058786 5969821.016310448 0  368062.2614420265 6013076.224998265 0  368062.2614420265 6032044.774992097 0  393987.6142659165 5988729.699941677 0  405920.1480513444 6013514.651333156 0  392856.2821527076 6034589.119828064 0  393514.9611654527 5968369.338068204 0  339399.8087404341 6032061.482581838 0  323455.6100285493 6013514.651333156 0  374995.9462927963 5965504.865595459 0  354379.8117870975 6037976.901948514 0  338123.9088969378 6017031.529131207 0  367397.3120126425 5982072.559192053 0  351882.5752379905 5991998.990225234 0  376945.425450199 5991232.708824487 0  392265.0061656896 6013300.936254065 0  357029.7426706699 6006608.947964352 0  380093.6207558212 6036880.127749795 0  323455.6100285493 5966529.009870751 0  405920.1480513444 6037007.472064359 0  405920.1480513444 5966529.009870751 0  323455.6100285493 6037007.472064359 0  333763.6772813987 6048753.88242996 0  405920.1480513444 5990021.830601954 0  323455.6100285493 5990021.830601954 0  362879.3643765316 5966837.319094267 0  348367.6438548031 5965604.161682394 0  334493.1989038612 5996935.948935225 0  395068.5043068817 6023875.372615605 0  348216.0324377587 6013504.844950221 0  379305.9090074943 6011603.390019651 0  372523.5158233726 6003480.000732267 0  395435.2039568929 5999384.346358113 0  395612.080798495 5954782.59950515 0  333763.6772813987 5954782.59950515 0  395612.080798495 6048753.88242996 0  374995.9462927963 6048753.88242996 0  374995.9462927963 5954782.59950515 0  354379.8117870975 6048753.88242996 0  354379.8117870975 5954782.59950515 0  335074.5981535012 6007206.680367459 0  391925.2695590468 5978591.908877409 0  371969.1707190623 6022560.499995181 0  383872.162544519 5969415.106147043 0  358038.7139835292 5984533.09712744 0  369699.869182786 5973102.2359358 0  369841.9126663716 6041099.453006387 0  343176.7440329155 5994428.220622956 0  362933.5332293962 6024385.235173292 0  330640.1760208776 5984148.625419154 0  348684.7494355051 5983110.856817525 0  399094.9690929834 6007537.420809742 0  345447.6324516311 5974162.84917082 0  332859.7749513451 6039150.972778062 0  344517.044630671 6024057.945416138 0  332973.1214415312 6025037.914505113 0  341428.0126373461 6040493.820728126 0  385874.264691618 5992757.40885039 0  350337.3662538711 6030387.535304286 0  359887.2373602368 6016186.250094838 0  377097.8989316926 6029115.217702097 0  338917.7109078235 5961484.016839475 0  329495.5261590715 5972402.215053552 0  336644.7280634616 5978216.610794215 0  330688.6715098422 5962480.256438018 0  359899.8039476132 6031963.415584587 0  399746.255941904 6030426.523907755 0  385511.6875144855 6030368.508996127 0  387377.735783329 6040763.821024337 0  398832.192399829 5974431.100387635 0  387992.9498994246 5962432.032572681 0  405920.1480513444 5984148.625419153 0  364925.7641745284 6005782.953640081 0  361769.877068089 6041226.651684469 0  398452.9199001931 6040850.732439541 0  398946.6205243983 5962252.502309519 0  362305.5577564609 5975984.89789681 0  356822.8065216601 5998470.186307689 0  386900.7115926162 5984820.732438302 0  329528.0119279922 6032067.230024892 0  331139.6939744562 6013813.572928222 0  398457.5876798834 5982541.698799337 0  405920.1480513444 6019387.856515957 0  398685.5166750694 6017257.578706384 0  348587.9424884976 6042755.309150081 0  369841.9126663716 5960143.732550304 0  380149.979919221 5960143.732550304 0  359533.8454135222 5960172.384722514 0  377147.8814772839 5972649.581024994 0  341756.3455763521 6010124.092444684 0  355615.8176864882 5966311.193813809 0  369144.4338274571 5989807.770003954 0  375185.9047422862 5983510.422041401 0  323455.6100285493 6007641.446150355 0  391856.7960121195 6005888.565703365 0  371978.0245217044 5996361.134308098 0  405920.1480513444 5995895.035784755 0  378877.1880032702 5998073.745937059 0  359056.6617417652 5991643.489540118 0  399278.8743430426 5993436.466134224 0  386116.8775939071 6009922.097099247 0  323455.6100285493 6019387.856515957 0  388994.7833819839 6019826.789191471 0  348897.6207366391 5998116.079250046 0  345456.3301153719 6035064.814295612 0  323455.6100285493 6042880.677247159 0  334124.3013408988 5990072.953472659 0  377097.8989316926 6018059.782440464 0  323455.6100285493 5995895.035784755 0  342871.8474798963 5980154.238874755 0  373596.9793292385 6035659.183886081 0  380149.979919221 6048753.88242996 0  376327.9292813152 6042294.581731233 0  329163.3548105369 6004704.843558955 0  350303.9432136903 6007093.032074522 0  383982.6552804571 6015912.664375832 0  345515.490569988 5988567.439252969 0  379019.812877927 6004678.052169549 0  365541.9137639466 6018750.691894444 0  349225.7781606728 5954782.59950515 0  352493.3399767278 5960815.406895458 0  363683.8130458911 5986976.225872464 0  386666.791301207 5975084.583584332 0  368937.6553346639 5966171.092344863 0  400003.9882214358 5968352.273777306 0  328776.0063842635 5992958.433193355 0  339958.4428758043 5999572.344589042 0  354577.7732363954 6012555.454074449 0  328609.6436549741 6048753.88242996 0  382053.0280278458 5988228.496807038 0  330708.6817934912 5978212.973348036 0  372084.7734679543 5978495.086505585 0  358568.2738174705 5971419.415228934 0  328931.2672829705 5998832.905089681 0  323455.6100285493 6031134.266881558 0  405920.1480513444 5972402.215053552 0  405920.1480513444 6031134.266881558 0  323455.6100285493 5972402.215053552 0  405920.1480513444 5960655.804687951 0  323455.6100285493 5960655.804687951 0  405920.1480513444 6007641.446150355 0  323455.6100285493 5984148.625419153 0  405920.1480513444 6042880.677247159 0  346648.7613474604 5960023.05127712 0  342415.3891593561 5966358.988213831 0  350507.6510228226 5971111.740321856 0  391773.9667214506 5994456.117700323 0  338875.8905424621 6026088.827345025 0  361429.1735454847 6010511.262533597 0  389395.7028803263 6025805.543023561 0  392895.6464692951 6043315.288173481 0  332846.8296575367 6019296.633131165 0  373337.4404588729 6009693.515402478 0  336544.3064612215 6043648.151399015 0  348610.2411382072 6019567.839754772 0  381943.4597763228 6042183.394750732 0  355630.0631288611 6028071.82801846 0  363941.5238882306 6035967.852698964 0  328179.67203552 6022271.326978176 0  401066.2857736665 5998807.415073814 0  344387.1099621175 6029612.545574771 0  393435.2235156003 5960233.556458537 0  400735.9970493424 6022675.638064924 0  393708.5772019727 6029179.837160029 0  400609.0696943338 5987857.851798974 0  361753.6614662939 6001152.171757337 0  400766.1144249197 6048753.88242996 0  353363.0524357285 6002630.165620538 0  343248.328463803 6018790.640008039 0  356419.8105951758 6043365.392189237 0  390234.385899412 6000759.497967276 0  368336.1168551637 6000220.532318851 0  328609.6436549741 5954782.59950515 0  387520.8298169724 6035372.992507171 0  400588.0280660195 6035823.299583429 0  329021.6598427091 6043194.252697862 0  393371.710206733 5983576.325812268 0  393638.9721728675 5973623.513063556 0  371727.9212466564 6017113.044457142 0  364687.2762977295 5959941.212693035 0  374995.9462927962 5960346.83186599 0  369841.9126663716 5954782.59950515 0  400766.1144249197 5954782.59950515 0  338917.7109078234 5954782.59950515 0  369841.9126663716 6048753.88242996 0  359533.8454135222 5954782.59950515 0  390458.0471720704 6048753.88242996 0  338917.7109078234 6048753.88242996 0  390458.0471720704 5954782.59950515 0  359533.8454135222 6048753.88242996 0  380149.979919221 5954782.59950515 0  349225.7781606728 6048753.88242996 0  339867.4956514095 6005339.817053361 0  333737.9460226952 6002130.523287664 0  336955.8140048417 6012008.440073739 0  377097.8989316926 6023232.32559834 0  371748.9790486701 6028016.629988787 0  338146.5171983215 5993298.164761053 0  355016.8390227688 6017610.913088997 0  393953.1528190996 6018968.416019509 0  335185.8133477239 5965142.63403323 0  328616.6041642396 5967263.80307608 0  380314.9487662361 5965460.362415641 0  354622.8993466098 6032976.142863722 0  328521.4725131759 6027215.026914048 0  334465.0783479523 6034070.534389696 0  328123.6212682287 6009699.206425843 0  381889.5169855529 5973936.741901617 0  359122.3484437474 6036790.002992895 0  386341.6533148278 5979963.279841923 0  400798.2159679119 6012477.871311778 0  388538.3765260249 5967461.292146791 0  340833.8784183678 5975728.708105717 0  355307.6239213505 5988552.151815021 0  362181.4274823388 5981261.937800813 0  353784.0322742948 5981044.538811012 0  358045.1698423899 5978741.391518688 0  328423.7350325213 6036912.015930048 0  366897.6876966125 6027277.723668203 0  347355.1745641421 5978532.307510624 0  376820.5060332146 5979033.270735624 0  349378.1778589479 6024378.632814493 0  327189.2282939323 6016451.253924556 0  338433.8773236172 6036753.902881841 0  350141.9760340559 5987605.90026687 0  363794.7083927878 5991713.491814731 0  350325.1285660182 6035273.515460094 0  382355.9358007369 5983507.499638396 0  327107.0747437811 59811
[...]
<PointData  Scalars="f_47234-1"> 
<DataArray  type="Float64"  Name="f_47234-1"  format="ascii">1.4850668291308426e-23  -4.0357820962386897e-22  -2.2012807678020720e-17  -3.9426354891357399e-21  -1.2217504324450404e-11  -3.1340851932993087e-16  -4.9813428148190355e-17  1.3353426996663400e-17  1.8492748294106047e-04  -5.0528128428646866e-18  7.3568317360772099e-11  1.1610525395765130e-12  2.6336292864727509e-18  4.7489873355250241e-10  -2.5764124818877186e-19  -1.8401791420150572e-15  -4.6795480857569440e-15  1.9482001725332976e-12  -2.2072238354139095e-07  3.4764828047512320e-05  -1.4838681191425486e-09  1.3128091509681523e-19  7.8818627591935282e-19  -1.7533716249065864e-13  -1.5243485768623883e-16  3.8432248841405219e-06  2.1244076950692108e-12  1.7908400862357461e-07  -1.6589176564734670e-13  -9.7039537396099323e-18  6.3882858233475775e-12  1.4820331535741334e-17  -1.3015353927012785e-16  -3.7139809064545129e-12  4.0499057675100508e-14  -1.1460194684970960e-13  -2.8645426203760475e-08  -3.3109820199893041e-09  -6.2713247278926591e-05  4.5209286476415749e-09  3.7736918547695993e-08  1.2241789305288816e-13  2.5821841351968356e-21  -3.1422098405443677e-18  -1.2692918743881050e-14  -3.8943290898351155e-19  5.7118089087881810e-22  1.5170155834881141e-11  4.5500752239013480e-17  -1.5445584590355854e-12  -4.7736440561877789e-16  -8.0194123286826032e-14  6.7327775218667149e-14  4.1910468698113605e-10  1.5949096779604029e-07  1.4371245871249115e-03  1.6843760171815320e-07  4.0959745293414038e-16  1.2661077565256941e-19  2.1570292414704753e-20  -4.4475943020760381e-18  8.8887366336878505e-16  8.9485899556269625e-19  3.3230500961935147e-17  1.0713428859363225e-12  -1.8248585081763828e-09  2.9969671060241394e-09  5.2868197059765719e-10  1.9125909755206664e-08  -4.2005224419746548e-10  -2.3732191842063200e-15  -6.8252534474112578e-11  6.6411280668284000e-10  2.2671208148605027e-16  -3.5704627167793005e-11  1.3067802015610044e-10  -1.8843603683667833e-13  -1.5243644253282148e-19  3.9757652925461163e-13  4.8069451157161806e-15  2.9726759542722083e-18  -4.7245231225380489e-04  1.5739503786366121e-12  1.5276809026835416e-07  -3.0452560300221119e-13  -3.8919565762826102e-18  -7.3316679112614492e-18  3.3183897640014845e-16  -2.3033770207092097e-19  8.3885762280683225e-13  -9.7657444648132843e-17  1.3451096965428424e-12  -1.3057892019600714e-17  5.6841253517792373e-12  1.7296942716507034e-12  1.9117844648980903e-11  1.8661180605208407e-03  5.8356642100348608e-16  6.1786552454095864e-19  -8.0986399408284170e-16  -3.6353413779684096e-10  -9.8020428443733987e-07  7.8596169684400678e-08  1.4622685283987339e-17  -7.2902240777427191e-15  -3.4142508625803821e-10  4.5095788574221256e-14  1.9263136210931820e-11  1.7601640303631249e-17  2.4142825274392925e-13  2.3727710899401560e-13  9.6217837073129962e-15  -9.0435033874765326e-10  -7.4016172032392826e-12  -7.4369200945757294e-14  -7.9748242109534328e-06  3.3387197236055346e-07  8.6351415631157249e-17  4.4936298257681367e-08  -1.4211734168851098e-02  1.7144740311453726e-11  2.2853712159360685e-03  -5.9765382396898219e-07  5.1905204629937966e-09  -1.9727046866261142e-07  1.3089657135128936e-17  -4.6139918129244398e-12  9.3741359836979067e-09  -5.6025608212834206e-16  -1.1507183262460596e-20  1.9699566240578296e-13  -2.2911704153167779e-08  1.0044348561432677e-16  5.0619974738809953e-13  2.2665946755677522e-14  6.9755044437243745e-18  -2.6096265268147047e-16  -6.4218412400598596e-15  2.6321532115897667e-08  -8.5386346925761226e-10  3.9263940266764457e-11  2.0332938774244061e-06  4.8677080926627428e-08  4.1252550765068209e-18  7.6278084877102993e-17  2.0249783901947725e-06  -1.2106593190395420e-08  -1.2163578721951003e-12  1.9178106901566541e-13  -7.4388958134018299e-16  -1.1819444235930547e-10  -4.9107326633565533e-08  -2.2456558791588640e-23  -2.3365742523573228e-04  3.3471837780976508e-18  1.2977756145295845e-07  2.6190939266507258e-11  -1.3472139142806246e-14  -1.3767892123675925e-19  -1.2433150705152668e-13  -2.3049254872874119e-16  2.8753954145063944e-19  -2.4173759470983798e-16  7.3159161673748086e-22  -8.9560333805017179e-13  4.7226220384016640e-17  -2.8154962160109415e-20  9.4074447537556564e-18  -9.5587841229043393e-16  3.2224940199123595e-13  2.5378659434470908e-06  2.3065685372122782e-14  -3.3272460817881201e-07  -1.0816729440232921e-13  8.9268764880688607e-19  -8.9920361197860735e-16  -1.2311919879874212e-05  -3.6068524691010477e-20  1.2625102492948680e-10  4.5360134703126403e-17  1.7497607816296243e-11  4.3010310874418631e-15  1.1767220186776501e-17  -1.2125230216977855e-10  -2.5807546656058973e-14  -6.1980005171297886e-14  -2.6106246887795409e-14  1.5846301502096489e-14  -3.7770275104301504e-10  -1.4631140675371092e-04  2.8912906673531594e-21  -6.8678733232487444e-07  -6.4564655224436933e-12  -9.2079122304138694e-18  -4.3876393674019772e-07  4.5348471375879645e-01  -1.3129683215193709e-20  9.2828709776795403e-15  -2.7019871300966449e-18  -6.2571475790732391e-21  -2.3004013195681822e-08  -3.5521481437087198e-11  8.9673002290425964e-08  7.4441254931475279e-14  6.4229485990577756e-14  4.9928834515964087e-16  -1.4373071932165985e-16  1.0956101580442045e-18  -1.3811476975552267e-17  -3.0749943411070520e-17  -4.6364516110674151e-19  2.3334100513586192e-21  -3.4744042121551631e-15  1.2940284766687271e-19  2.8293173781789105e-16  7.5011497168814511e-19  -7.5521006614620528e-11  -1.2026876879006289e-12  1.6173415343750447e-12  7.3505548343172500e-10  7.1715435408554864e-12  4.5549602794791583e-12  5.7939141690923877e-09  -4.2769528578163857e-12  -1.8540791073380290e-17  -6.2430083744370586e-19  2.8662365874915676e-12  9.5900647640442278e-13  2.9557133437168609e-17  3.9908853859143794e-17  5.7272609246423144e-15  5.9429288876549244e-09  1.2401053874627793e-14  4.7808790393102863e-08  -1.0361310977051694e-11  -1.9105651172416188e-11  4.6028954616638691e-14  -1.6476931595437057e-08  -4.8772063372637504e-09  1.9009995055629645e-11  -2.7107391711693835e-10  3.3999137564404917e-19  7.7007525970383413e-11  -2.5917093346748774e-12  1.1448129613819363e-07  8.1505930733431650e-12  1.3102027018704953e-16  -2.0757040488464972e-18  -4.3232636779227816e-10  9.3715573214417216e-06  2.6067750990514823e-16  -9.5059071842450235e-06  1.9006428319156435e-17  -5.4317811958749594e-15  -1.1655974157534895e-15  -6.8072237530196068e-05  -2.3145034952983029e-12  -1.7217553357757995e-11  -3.7497040720486295e-09  -1.0677456220582243e-16  1.9963062727133724e-16  7.4957800497529646e-14  -2.9336495797009908e-17  -1.0068396351837772e-16  2.0702561667642253e-09  -5.6578896452162082e-07  2.4710966297455747e-16  1.5695972130950694e-04  1.1803247384041064e-13  -1.5395121954346774e-09  1.0338778524503606e-07  -1.0137259064249213e-02  -5.0355468697833279e-10  -1.7498322493810342e-14  -5.8875702483883619e-11  3.3777937312150271e-10  5.9934696889604239e-09  2.9530234333555570e-09  -2.1997135532487014e-06  -1.9781154572180663e-12  -2.5692990355787589e-11  -1.0499546087017842e-12  -3.8701101734170406e-08  2.3830273986412115e-06  1.0443237053648287e-05  6.0420011212060978e-18  4.6319761615216420e-11  1.7094463205828239e-19  -8.6461341783485717e-15  3.5459582390645493e-10  1.4504701645268511e-11  3.8247284950153993e-10  -2.7796664870171954e-18  1.9659101372167794e-11  1.6159228547694595e-12  -4.5407588516385521e-05  3.0525294759808419e-14  5.4087459057960305e-19  1.2299665033250098e-17  1.6766886340744771e-06  1.7444565405781427e-15  3.8573228169434719e-14  2.2835216169503338e-18  2.7039676265794982e-12  9.8112079828953265e-21  -6.2535288191967442e-19  -1.1084478582465626e-19  -1.9129874912173501e-03  -2.1615432481047700e-17  8.2545965426945510e-06  4.1161990542581512e-17  -1.4811808586252723e-19  -3.7797779525699326e-16  -4.3430403611890790e-13  -2.9439226214801781e-14  -4.2064222842156286e-17  2.8547625281237115e-10  5.0321203414787510e-13  -1.4664851946393963e-15  -3.8743914315727456e-15  -2.3186777214793293e-13  -1.0476477884004424e-08  -5.9174575062374889e-06  -1.4199597234456311e-05  -2.4381293292105843e-16  -4.8675095085408692e-11  1.4798121755857481e-13  -1.0694594027986234e-20  -9.3467658768702724e-21  3.4392960504197431e-12  -2.4312750231569128e-12  2.9990314240133739e-12  -9.9784161617078852e-14  -3.3111443307531949e-15  -2.9876726202488125e-15  4.5683153322503552e-17  7.6194430527367209e-04  4.2982516152018615e-11  -1.5281010411087049e-13  -2.9598141828119855e-09  8.1619493877867726e-05  -6.3324754601355108e-05  3.8286281510488212e-04  -2.0608101579411655e-04  5.7573263026156452e-17  1.5127667639740226e-07  9.5579150019566041e-12  3.5680746942350483e-13  1.7589467148294321e-12  -3.9750598318600673e-11  -3.8043986601905620e-22  8.5650614109931359e-20  -7.9363275036384954e-09  8.8558594438212521e-15  -7.4045211932025182e-14  -4.7176208395383868e-08  -1.3739137388672631e-16  -1.5355555765453438e-09  1.4812098720632619e-16  -1.3941794426217891e-09  6.5005325130245027e-09  7.5285017276784962e-17  6.2324785255054514e-19  1.4986063923567471e-05  -2.4415797740927697e-08  5.7823985038670197e-13  -7.3028949213526602e-13  5.4811807952752531e-13  -4.2021271863999251e-22  2.3910533558382620e-19  3.2069104933884295e-17  -6.6572034770242199e-05  3.4638713278457699e-10  3.9796362003192722e-16  -7.6641816828590255e-16  -9.1745951606930614e-14  6.7212395060056556e-13  1.7489103761990940e-14  1.2901813082303104e-14  6.4557087728253687e-08  -4.0104100686843441e-09  -5.2258238063733982e-13  1.0505700215163714e-17  3.1395248690486532e-13  -8.5212807959742358e-12  8.6074262554085027e-17  -1.1780899187409190e-12  3.4322932355215972e-06  -1.2721003445161306e-10  -1.6172100946373426e-12  2.2818393515987456e-14  -1.3657635310958058e-15  2.1416728264953287e-20  1.5123894601629082e-13  9.7469518410712686e-07  1.8977311909441993e-11  1.4624050437519462e-13  3.0771814243293995e-11  -7.0983941891557022e-14  -2.8155388719393405e-13  -1.1660728149912381e-10  1.1837714022428343e-11  -8.2085808705196765e-17  1.1954636748534139e-13  -5.7451244317114398e-09  -9.2169209543053859e-10  -5.9007199095006345e-10  -3.3441815985891386e-08  1.8291946578326099e-07  2.3675724409669039e-10  1.7744911760641076e-09  -2.9020744469371381e-15  -2.1057230730835347e-15  -8.5282687095086539e-07  2.8613618638079494e-19  -5.4335540307244096e-05  1.7605646856158308e-01  -2.8131659443740721e-18  -3.7717095333976546e-16  -6.8799426605198971e-09  -2.9223903414368149e-12  4.5555241754105760e-07  4.5714372845766737e-16  2.2911301714392121e-18  2.9248778543477015e-17  2.5093971583904864e-17  6.3124711649495808e-17  5.1199637454918375e-10  2.5925020377232541e-10  1.8780205535680371e-12  7.8920682064393099e-12  8.0411913386923311e-18  4.6337562050614242e-09  -2.6657065398186992e-07  6.5892282857428301e-07  -1.3817864872118048e-11  -1.0857269482365683e-14  1.3581275761733074e-10  1.1750827023897930e-07  1.4953037271936556e-08  9.1735953149078619e-07  3.0868702468817336e-11  -6.6830118937009083e-12  -8.8892030746226085e-03  4.4678002657497105e-19  1.9032878049309417e-11  -1.3639202966995827e-10  -1.9005014958663833e-10  1.3608570951479748e-14  -1.8495028567607142e-13  2.1619682757511319e-18  1.4196836624943746e-03  3.7674283345106874e-07  1.5916045950041415e-13  1.0258777427365626e-08  4.0074577827082265e-11  1.0885713656124574e-16  1.1390918142930838e-09  1.1637843937564537e-12  3.8015877905766648e-07  3.1976129868921347e-15  -2.7883835098061338e-15  9.5354245825965317e-14  -2.7610883987003201e-12  -3.6634352188726829e-19  4.5516681660031758e-13  -8.1126984909313684e-17  5.4975650374838445e-10  -9.2886717133376153e-12  -3.3784423967155903e-08  6.7891890058043054e-16  2.9247969411569480e-10  1.8716854298841105e-11  1.7189081687061627e-18  -2.2801391701570764e-03  -1.2044319752838140e-15  2.1049272507752881e-11  1.1188492688057559e-13  1.9330267231444338e-09  -5.8311698942734516e-09  -2.3161643506632905e-18  5.9514935933452399e-10  -1.8274578006691918e-04  5.1348155462920959e-15  -7.9414196710721718e-12  1.0974668464367026e-12  -3.9170429507052833e-14  7.3206758403321381e-16  3.9711162226907738e-13  5.5050399782487386e-06  1.1383825300326753e-01  2.2161703532583577e-11  9.1472052077126912e-12  2.4438961925265691e-20  1.4027575930329404e-10  6.7107564889900459e-10  -8.2887402666794373e-10  1.6951440172253366e-15  1.0582598614404967e-15  -1.2080839227628593e-16  -1.2394427093513629e-08  2.2842133291837617e-18  3.1023669589723266e-18  -2.9625418897994431e-18  -7.6731772057413908e-17  -7.7421101581565504e-09  -2.8580038211020018e-09  -1.3419231063283375e-08  6.0934128230352958e-16  3.7334382097295739e-09  -2.6293373307472775e-14  3.0572376537037020e-10  3.9255073022758281e-15  8.1931956120741180e-08  1.7326746702385259e-07  -6.0812218802636722e-10  1.4364402832158255e-12  -1.3491484569014523e-11  6.9566005979901599e-11  3.8924567487453954e-03  -8.0281708481606159e-06  5.1424929397358101e-06  5.0073082709709265e-09  -7.7475137645006407e-17  2.4273030548016468e-05  5.9920582691418507e-18  -1.5149132491269529e-16  -1.2332339642890208e-15  -1.2792691934523347e-16  3.2290426457615241e-15  3.2970242614456530e-14  9.6366790466721773e-21  -3.0809395085773300e-09  -6.8813454964261467e-17  6.7346645735168895e-19  -3.6405132806150409e-18  2.5373590285529878e-14  2.7921525382847117e-15  -5.7744736723060862e-11  -4.4957340028141275e-22  3.8045772501142898e-21  -4.3073382852083630e-16  -3.1292330491295553e-22  1.2123712502925079e-07  2.0059683650696999e-07  -2.8728177198338247e-07  -1.6650068635669083e-05  1.4259581769832268e-14  -4.7983921350107461e-07  -9.2864681818924576e-19  1.7103906736574500e-09  -4.0584273024490360e-14  6.7761216042541367e-13  -3.1966812800090437e-11  2.0137514416373938e-12  1.0468582320261402e-08  -5.4751085422514951e-20  8.6242083522227938e-21  -4.9930247837136612e-18  -1.2660500268218221e-18  -4.5025103613335851e-16  -1.9373960990455279e-14  -1.2891920673735532e-09  -1.5054516844559756e-11  6.0997187077162137e-19  1.4609040933474273e-09  6.1694398503631488e-12  -1.2176572490014230e-11  5.9824226691107221e-06  4.0301414777055188e-11  -4.6922736380019646e-18  -2.8689746621432022e-16  3.8207753412690984e-16  1.1345963203832567e-14  4.5472334234202116e-14  2.3383840284869975e-15  1.0953424460732838e-16  -1.7741875509015811e-14  2.9186660729193163e-13  -2.8683125323199042e-14  -2.0933583360266497e-17  -6.4998746783072516e-03  -2.7218825309336027e-04  4.0251206677742728e-10  5.0552322799104569e-19  4.6216643588720965e-17  -2.0946453734709798e-16  1.4407474453622892e-16  -7.6369791246877488e-23  7.4398512277455148e-16  5.5686940432908319e-20  -4.5203310566436106e-04  1.0705405756683058e-04  5.2769518086714289e-14  -2.4647609901366805e-13  -5.5980274317741276e-13  8.7069942293292263e-17  9.9486105126679150e-18  1.3161571346565897e-13  7.9370127487791120e-08  7.8413915657299250e-09  2.6606475988712449e-07  2.4776228943651802e-11  -5.0511970228102016e-07  -2.0539464080883929e-05  -1.1210042451411479e-04  4.9183874431248275e-13  -1.1505727800247285e-13  -3.2892817459491852e-15  -8.1220362646451905e-15  1.2152082129827602e-15  -3.2629531528337882e-18  2.9827920886570510e-13  1.9722034318533944e-17  -8.2711088332037414e-20  -2.4212282487170855e-13  6.5573763834930581e-16  1.7262721870768954e-15  -1.2507632327902634e-20  -4.0223195400787639e-20  -1.3655016808113555e-12  -9.4378303322607761e-18  -6.6122130729939932e-12  4.5922908078221726e-14  -8.0467746072112469e-15  6.9094358658872418e-15  4.3260844072233694e-09  1.8867875084276298e-11  -6.8772424505058351e-11  1.3903159356082318e-12  2.0096428229361002e-18  7.0328733203013631e-19  -1.5124672140442604e-18  -5.8144293267199072e-21  -2.1598078352763837e-19  3.7027307959546565e-20  2.3051364698931117e-12  5.9243192348164121e-10  2.1851323263016006e-14  -4.7358788920750273e-14  -1.0549155269760668e-10  1.2906224984187201e-08  -2.8039288389508932e-13  -6.4580315346184905e-13  -2.8515000298480487e-11  9.7897084567697146e-11  6.6489691203549059e-13  3.4985754336685842e-16  -5.4855790643312838e-18  -3.8294589310288504e-15  4.9669822761642533e-14  -7.6067311209888484e-15  5.2520037760955155e-16  3.9016977963658664e-05  -4.6531966023166095e-11  -8.7746013244026867e-16  -5.3092606985623793e-09  -7.2905578758298875e-15  6.6454470617309422e-13  -8.7461472773392187e-16  2.2326708138776664e-10  1.6583886571518793e-04  2.7549965749414038e-22  2.4543636825655399e-23  -3.0542144772184195e-07  1.3485659099619716e-20  7.6776238080499591e-17  -1.7375645868428268e-05  2.4133354120951665e-03  -9.5932963822417726e-05  -9.0087099412118699e-18  2.6395935054063333e-15  2.4278178715189964e-03  -6.4624435536111789e-10  1.3522422768912577e-18  4.8436063834517992e-04  -2.6287397348185833e-16  6.7464746104441842e-21  7.3887600786320484e-13  1.9008271038078353e-18  1.8256020502513773e-16  1.6857384790668520e-11  1.9874607295103727e-17  3.9071110814560959e-11  -8.3728250527110671e-17  5.4281310945000336e-05  -2.0359338482899130e-11  7.2235391283771770e-05  1.6560800655112627e-09  3.5598292494691887e-16  2.6674862313521599e-05  4.3685913776484863e-14  -4.3269994228461131e-12  5.6682702289506207e-18  9.6183694521753384e-13  2.2770931600920090e-17  1.4045585367647665e-19  -3.8358615186413377e-11  -1.9523100768143325e-12  -1.2186746017751413e-16  -1.0529651832284592e-09  1.6805806731092262e-07  -2.2254002173291806e-09  2.6993985912843905e-06  -5.6243121291396810e-16  -4.1425380909924642e-14  3.2229002948582635e-11  -3.4315395092175832e-12  4.0871937620268972e-06  -1.2652217155932613e-14  6.0956791676184706e-15  -2.5691856150557723e-16  -2.7069261046879271e-16  -3.1193704198168965e-14  -5.9365249542502173e-17  2.7943505377556054e-17  1.3484857640358816e-01  -1.3443762151636795e-05  2.4759922692665734e-06  1.2129457808859813e-06  -1.4468529302941812e-07  7.7321656368373697e-07  2.5150747805385104e-07  1.1919196782957703e-12  -9.2579727338512715e-13  -9.4422788347215014e-08  -2.0733615095142384e-18  2.2804704773239374e-12  -2.4904387439540546e-16  5.0878343110311490e-09  1.5441697023805151e-09  3.4568260142073600e-09  2.1197787897583236e-07  -3.3330574208780097e-17  -1.1800507538836106e-17  -1.0596755576933735e-12  3.0286304334745042e-12  -1.0187917978624001e-12  -1.9536650834552803e-17  -8.3288370780451605e-16  -1.1176533290395338e-09  7.6944747171713415e-09  5.1524235834674402e-17  4.6329387012429926e-19  4.5625697923590187e-15  1.4312934513012111e-11  6.7207977923468153e-11  -2.6101588185087324e-11  -3.2271018355122856e-11  1.9267116613171915e-09  -2.8891706709984919e-11  3.1238145976536520e-07  -2.0821939650510633e-20  1.7275571401674813e-17  1.1771063424891991e-16  4.8727899856195901e-12  -1.6511056990849929e-14  -4.2965235967581137e-19  3.2799498185207542e-19  -4.2842846454844293e-20  -1.9436453741194404e-18  4.4811111434134500e-11  -2.7390796077848401e-12  -1.6592784076828836e-13  5.0799341912310289e-09  1.8354759459437527e-08  8.1153687629012129e-09  -1.4084072271089144e-15  -3.4556677468634809e-10  -2.2563375155411333e-15  1.8635890197604058e-07  -2.9341345162650097e-18  -9.1050438075025920e-15  -1.4340088278370978e-15  1.3434088919389807e-13  -1.8468449992486419e-14  1.8393406380214225e-13  1.2458642446319164e-12  2.8046893035426695e-13  -1.6148561439751085e-12  1.1395947021914980e-12  -1.2691821676024195e-12  7.6839649130893593e-19  1.6142737479112027e-22  2.0461260406064722e-16  3.3893267006202525e-15  -8.6227145564763624e-22  -2.3991135616455599e-17  3.6889294276776314e-19  1.4045642232818331e-18  -2.9458388440663055e-16  -5.2538940937884989e-16  -2.1029701719150143e-16  -6.4559453677974178e-19  -1.9839509949242298e-16  7.4300550557304444e-22  -2.6815289605867381e-18  -2.2618048287672003e-21  -1.1261279684245012e-19  1.6763654129305839e-18  -4.5559258979975684e-03  2.1606851918112867e-08  -9.8235727669388233e-10  -1.2178633557060225e-10  1.9285436985061083e-18  -8.0427171636009099e-18  -4.2309780565602336e-17  2.3233884282071140e-21  -3.9432393500764535e-07  1.6750644467345531e-12  -1.1537592712763902e-17  2.6128384865253873e-07  2.2053050720248411e-18  -7.46115764744012