<?xml version="1.0"?>
<VTKFile type="UnstructuredGrid"  version="0.1"  >
<UnstructuredGrid>
<Piece  NumberOfPoints="3002" NumberOfCells="5870">
<Points>
<DataArray  type="Float64"  NumberOfComponents="3"  format="ascii">323455.6100285493 6048753.88242996 0  323455.6100285493 5954782.59950515 0  405920.1480513444 5954782.59950515 0  405920.1480513444 6048753.88242996 0  405920.1480513444 6001768.240967555 0  323455.6100285493 6001768.240967555 0  364687.8790399469 5954782.59950515 0  364687.8790399469 6048753.88242996 0  364687.8790399469 5996367.117560402 0  323455.6100285493 6025261.061698757 0  382226.6271443229 6022560.499995181 0  405920.1480513444 5978275.420236353 0  323455.6100285493 5978275.420236353 0  353897.8957397301 6022560.499995181 0  344071.7445342481 5954782.59950515 0  385304.0135456456 5954782.59950515 0  405920.1480513444 6025261.061698757 0  354379.8117870975 5975574.858532775 0  381582.8168806895 5978840.396198289 0  384950.2598624413 6001768.240967555 0  344643.0480768835 6003429.02033719 0  344071.7445342481 6048753.88242996 0  385304.0135456456 6048753.88242996 0  339717.0321562298 5986078.187627405 0  337515.036058786 5969821.016310448 0  368062.2614420265 6013076.224998265 0  368062.2614420265 6032044.774992097 0  393987.6142659165 5988729.699941677 0  405920.1480513444 6013514.651333156 0  392856.2821527076 6034589.119828064 0  393514.9611654527 5968369.338068204 0  339399.8087404341 6032061.482581838 0  323455.6100285493 6013514.651333156 0  374995.9462927963 5965504.865595459 0  354379.8117870975 6037976.901948514 0  338123.9088969378 6017031.529131207 0  367397.3120126425 5982072.559192053 0  351882.5752379905 5991998.990225234 0  376945.425450199 5991232.708824487 0  392265.0061656896 6013300.936254065 0  357029.7426706699 6006608.947964352 0  380093.6207558212 6036880.127749795 0  323455.6100285493 5966529.009870751 0  405920.1480513444 6037007.472064359 0  405920.1480513444 5966529.009870751 0  323455.6100285493 6037007.472064359 0  333763.6772813987 6048753.88242996 0  405920.1480513444 5990021.830601954 0  323455.6100285493 5990021.830601954 0  362879.3643765316 5966837.319094267 0  348367.6438548031 5965604.161682394 0  334493.1989038612 5996935.948935225 0  395068.5043068817 6023875.372615605 0  348216.0324377587 6013504.844950221 0  379305.9090074943 6011603.390019651 0  372523.5158233726 6003480.000732267 0  395435.2039568929 5999384.346358113 0  395612.080798495 5954782.59950515 0  333763.6772813987 5954782.59950515 0  395612.080798495 6048753.88242996 0  374995.9462927963 6048753.88242996 0  374995.9462927963 5954782.59950515 0  354379.8117870975 6048753.88242996 0  354379.8117870975 5954782.59950515 0  335074.5981535012 6007206.680367459 0  391925.2695590468 5978591.908877409 0  371969.1707190623 6022560.499995181 0  383872.162544519 5969415.106147043 0  358038.7139835292 5984533.09712744 0  369699.869182786 5973102.2359358 0  369841.9126663716 6041099.453006387 0  343176.7440329155 5994428.220622956 0  362933.5332293962 6024385.235173292 0  330640.1760208776 5984148.625419154 0  348684.7494355051 5983110.856817525 0  399094.9690929834 6007537.420809742 0  345447.6324516311 5974162.84917082 0  332859.7749513451 6039150.972778062 0  344517.044630671 6024057.945416138 0  332973.1214415312 6025037.914505113 0  341428.0126373461 6040493.820728126 0  385874.264691618 5992757.40885039 0  350337.3662538711 6030387.535304286 0  359887.2373602368 6016186.250094838 0  377097.8989316926 6029115.217702097 0  338917.7109078235 5961484.016839475 0  329495.5261590715 5972402.215053552 0  336644.7280634616 5978216.610794215 0  330688.6715098422 5962480.256438018 0  359899.8039476132 6031963.415584587 0  399746.255941904 6030426.523907755 0  385511.6875144855 6030368.508996127 0  387377.735783329 6040763.821024337 0  398832.192399829 5974431.100387635 0  387992.9498994246 5962432.032572681 0  405920.1480513444 5984148.625419153 0  364925.7641745284 6005782.953640081 0  361769.877068089 6041226.651684469 0  398452.9199001931 6040850.732439541 0  398946.6205243983 5962252.502309519 0  362305.5577564609 5975984.89789681 0  356822.8065216601 5998470.186307689 0  386900.7115926162 5984820.732438302 0  329528.0119279922 6032067.230024892 0  331139.6939744562 6013813.572928222 0  398457.5876798834 5982541.698799337 0  405920.1480513444 6019387.856515957 0  398685.5166750694 6017257.578706384 0  348587.9424884976 6042755.309150081 0  369841.9126663716 5960143.732550304 0  380149.979919221 5960143.732550304 0  359533.8454135222 5960172.384722514 0  377147.8814772839 5972649.581024994 0  341756.3455763521 6010124.092444684 0  355615.8176864882 5966311.193813809 0  369144.4338274571 5989807.770003954 0  375185.9047422862 5983510.422041401 0  323455.6100285493 6007641.446150355 0  391856.7960121195 6005888.565703365 0  371978.0245217044 5996361.134308098 0  405920.1480513444 5995895.035784755 0  378877.1880032702 5998073.745937059 0  359056.6617417652 5991643.489540118 0  399278.8743430426 5993436.466134224 0  386116.8775939071 6009922.097099247 0  323455.6100285493 6019387.856515957 0  388994.7833819839 6019826.789191471 0  348897.6207366391 5998116.079250046 0  345456.3301153719 6035064.814295612 0  323455.6100285493 6042880.677247159 0  334124.3013408988 5990072.953472659 0  377097.8989316926 6018059.782440464 0  323455.6100285493 5995895.035784755 0  342871.8474798963 5980154.238874755 0  373596.9793292385 6035659.183886081 0  380149.979919221 6048753.88242996 0  376327.9292813152 6042294.581731233 0  329163.3548105369 6004704.843558955 0  350303.9432136903 6007093.032074522 0  383982.6552804571 6015912.664375832 0  345515.490569988 5988567.439252969 0  379019.812877927 6004678.052169549 0  365541.9137639466 6018750.691894444 0  349225.7781606728 5954782.59950515 0  352493.3399767278 5960815.406895458 0  363683.8130458911 5986976.225872464 0  386666.791301207 5975084.583584332 0  368937.6553346639 5966171.092344863 0  400003.9882214358 5968352.273777306 0  328776.0063842635 5992958.433193355 0  339958.4428758043 5999572.344589042 0  354577.7732363954 6012555.454074449 0  328609.6436549741 6048753.88242996 0  382053.0280278458 5988228.496807038 0  330708.6817934912 5978212.973348036 0  372084.7734679543 5978495.086505585 0  358568.2738174705 5971419.415228934 0  328931.2672829705 5998832.905089681 0  323455.6100285493 6031134.266881558 0  405920.1480513444 5972402.215053552 0  405920.1480513444 6031134.266881558 0  323455.6100285493 5972402.215053552 0  405920.1480513444 5960655.804687951 0  323455.6100285493 5960655.804687951 0  405920.1480513444 6007641.446150355 0  323455.6100285493 5984148.625419153 0  405920.1480513444 6042880.677247159 0  346648.7613474604 5960023.05127712 0  342415.3891593561 5966358.988213831 0  350507.6510228226 5971111.740321856 0  391773.9667214506 5994456.117700323 0  338875.8905424621 6026088.827345025 0  361429.1735454847 6010511.262533597 0  389395.7028803263 6025805.543023561 0  392895.6464692951 6043315.288173481 0  332846.8296575367 6019296.633131165 0  373337.4404588729 6009693.515402478 0  336544.3064612215 6043648.151399015 0  348610.2411382072 6019567.839754772 0  381943.4597763228 6042183.394750732 0  355630.0631288611 6028071.82801846 0  363941.5238882306 6035967.852698964 0  328179.67203552 6022271.326978176 0  401066.2857736665 5998807.415073814 0  344387.1099621175 6029612.545574771 0  393435.2235156003 5960233.556458537 0  400735.9970493424 6022675.638064924 0  393708.5772019727 6029179.837160029 0  400609.0696943338 5987857.851798974 0  361753.6614662939 6001152.171757337 0  400766.1144249197 6048753.88242996 0  353363.0524357285 6002630.165620538 0  343248.328463803 6018790.640008039 0  356419.8105951758 6043365.392189237 0  390234.385899412 6000759.497967276 0  368336.1168551637 6000220.532318851 0  328609.6436549741 5954782.59950515 0  387520.8298169724 6035372.992507171 0  400588.0280660195 6035823.299583429 0  329021.6598427091 6043194.252697862 0  393371.710206733 5983576.325812268 0  393638.9721728675 5973623.513063556 0  371727.9212466564 6017113.044457142 0  364687.2762977295 5959941.212693035 0  374995.9462927962 5960346.83186599 0  369841.9126663716 5954782.59950515 0  400766.1144249197 5954782.59950515 0  338917.7109078234 5954782.59950515 0  369841.9126663716 6048753.88242996 0  359533.8454135222 5954782.59950515 0  390458.0471720704 6048753.88242996 0  338917.7109078234 6048753.88242996 0  390458.0471720704 5954782.59950515 0  359533.8454135222 6048753.88242996 0  380149.979919221 5954782.59950515 0  349225.7781606728 6048753.88242996 0  339867.4956514095 6005339.817053361 0  333737.9460226952 6002130.523287664 0  336955.8140048417 6012008.440073739 0  377097.8989316926 6023232.32559834 0  371748.9790486701 6028016.629988787 0  338146.5171983215 5993298.164761053 0  355016.8390227688 6017610.913088997 0  393953.1528190996 6018968.416019509 0  335185.8133477239 5965142.63403323 0  328616.6041642396 5967263.80307608 0  380314.9487662361 5965460.362415641 0  354622.8993466098 6032976.142863722 0  328521.4725131759 6027215.026914048 0  334465.0783479523 6034070.534389696 0  328123.6212682287 6009699.206425843 0  381889.5169855529 5973936.741901617 0  359122.3484437474 6036790.002992895 0  386341.6533148278 5979963.279841923 0  400798.2159679119 6012477.871311778 0  388538.3765260249 5967461.292146791 0  340833.8784183678 5975728.708105717 0  355307.6239213505 5988552.151815021 0  362181.4274823388 5981261.937800813 0  353784.0322742948 5981044.538811012 0  358045.1698423899 5978741.391518688 0  328423.7350325213 6036912.015930048 0  366897.6876966125 6027277.723668203 0  347355.1745641421 5978532.307510624 0  376820.5060332146 5979033.270735624 0  349378.1778589479 6024378.632814493 0  327189.2282939323 6016451.253924556 0  338433.8773236172 6036753.902881841 0  350141.9760340559 5987605.90026687 0  363794.7083927878 5991713.491814731 0  350325.1285660182 6035273.515460094 0  382355.9358007369 5983507.499638396 0  327107.0747437811 59811
[...]
<PointData  Scalars="f_35911-1"> 
<DataArray  type="Float64"  Name="f_35911-1"  format="ascii">-5.5553913554080912e-28  8.5005347492702338e-27  3.2521977398396848e-22  7.5038132984985898e-25  2.3456192629889937e-16  -1.2651159518929937e-21  1.8192173556682229e-20  -5.0122402271886476e-22  -2.1689881968566154e-08  -9.2824763985632242e-24  5.4049766975714258e-15  -1.1296287237844993e-17  -5.6036536220567711e-23  -2.9624188618903252e-15  -5.5199193940514623e-23  2.2820630168891140e-20  -5.6853144651165702e-20  -9.2800442002594362e-17  1.5007191107662288e-12  6.3243218048066227e-11  3.6038586254550160e-14  8.4771734688122878e-23  -6.0848516831332909e-22  -2.1279450845337257e-18  1.4692188346311316e-21  -1.0280070658020716e-10  4.8642988329633672e-18  -9.0920103366633411e-13  1.0904937489804312e-17  4.1271412196888254e-19  -7.4730290521488673e-17  1.8734461186622555e-21  -1.1979004258658685e-22  -1.6649943721872920e-20  -1.4347972432590534e-18  5.0160085905596723e-19  -7.0043924021854192e-12  3.3555844826619469e-12  2.6768350680040833e-08  5.1282994623967356e-15  1.2375054333900466e-11  1.3998205405626939e-17  1.8990341679935723e-24  2.5432993956689665e-23  4.7617339743975927e-19  -1.1318621680373164e-24  -2.7180528835755649e-26  -2.5204697740493800e-16  2.6861886052785355e-22  -7.8180161296838065e-17  7.8043899775179231e-20  -2.0062926778575258e-18  9.4209293863915426e-18  9.0844028956557557e-15  1.9967020936074187e-12  2.3251780992432053e-08  -7.5578330481613080e-13  5.7331604457326054e-21  -2.3239482880646154e-24  -5.3098893110346503e-23  -1.6959749854871525e-21  -8.1185689688699735e-21  1.1290184503839364e-22  1.1765962166207137e-21  -8.7816781384842530e-19  5.6676987090487391e-15  3.1685419762677142e-13  -1.4958229510162853e-15  1.2312553170023048e-13  7.0756451740918986e-15  -1.1575434790214351e-19  2.9543064861713507e-14  -1.9215567124946734e-14  -2.2813728705652891e-21  1.7319104323534199e-15  3.0032034203550897e-15  3.9367247331344519e-18  -4.6335553128388298e-24  5.1570972043539229e-18  1.1918227087862777e-20  3.1352028990351060e-22  3.5874430683366010e-09  -3.5072345781494842e-17  1.4779075665210582e-12  -6.0525342461320715e-17  1.8063986324381617e-22  4.5156150116345359e-22  -2.3301612399258621e-19  2.5358292441858031e-24  -3.4689000227931446e-17  1.5828818532427630e-20  1.2616992399746049e-16  1.9123004684494318e-20  -6.8882919660622598e-17  -5.9503877922536070e-18  -1.3011462049778429e-16  7.4437142354345168e-09  -1.5941003069300860e-19  1.4497561793649916e-21  -2.5179825271893085e-20  -3.3202249602478574e-14  2.9180385642624733e-10  -5.1436702826908880e-12  3.6611744785432114e-23  -1.1427425251287780e-20  4.9581862336645162e-15  8.7654885528740708e-19  6.0714435319904083e-17  9.5463767666657723e-21  -5.9431346669095528e-19  -1.0245336647562005e-18  9.2846965605319222e-20  2.8710979896042190e-15  -1.2939795878061630e-16  -3.5705691094723284e-18  -2.8048462724123660e-09  -2.6361188114047049e-11  2.7503624245215641e-22  -5.7474874643917534e-14  -1.7594450196870965e-07  -3.9432111160486771e-16  -1.0593578113224004e-08  9.1664705251905161e-10  -3.2602168400374793e-14  1.1808420952907203e-14  1.5569537710884139e-24  1.0770158347141151e-16  -3.2511665483332827e-13  -5.5553621086604088e-20  -4.2932039366151857e-26  -1.7263243695495029e-18  -3.1147167411417741e-12  -3.5046934821544609e-22  -7.2007450018616733e-18  3.0302851421187729e-18  5.4444762783176908e-21  -1.2351905216814988e-19  5.3216579660139287e-20  8.7611282381149015e-14  -9.6365483819461006e-14  -1.5075722333581580e-15  1.4405573066924208e-10  -4.7107952281884506e-13  1.8682213734097886e-22  1.0409496554379367e-20  4.1502582305561827e-11  6.6251671135274364e-14  4.9672363974882847e-17  -1.0846677504763829e-18  4.5619117470917093e-20  -3.4367674263334598e-16  2.2032570779500319e-14  4.6087859251914783e-27  1.9349951893511851e-09  1.1971938096200724e-21  -2.1655247359194532e-13  2.8115732176179886e-16  2.9816734459064302e-20  -8.2889207232831170e-25  4.3053686176243072e-18  -2.9823708856669079e-21  -1.4859909759419521e-23  6.2167579355110701e-21  -3.3323890900191319e-26  4.3844995592537383e-17  -7.7462123449097148e-22  1.2841434931475841e-23  1.8076390240738707e-21  2.7093424434933772e-20  6.2315867700882751e-20  -1.1868952307778455e-11  1.3819114982090430e-19  -1.0576964883312857e-10  -1.7520744434107339e-17  2.2049406723667121e-21  1.8519979535693085e-20  -1.1518198288440241e-09  -2.8826133368925089e-24  -5.4971803414217110e-16  -6.3774284279993931e-21  -2.8534334305127647e-16  -1.6309986825792917e-18  9.8709021267995773e-23  1.6458454132151653e-15  -7.7063899255886767e-19  2.5028204590963788e-19  -8.4258371114765330e-20  1.2273058153146942e-18  6.1353725224410588e-15  5.4293645741329205e-09  5.4757222521046316e-24  1.5351544672147563e-11  -1.4933440507408588e-17  6.5070223912705719e-21  1.0763844978053687e-11  -3.4468880293154453e-06  1.6366245328303063e-25  1.3607963855344672e-18  2.3159933645421872e-21  -1.1239514971758042e-26  3.3551785759174597e-13  7.3691221334712831e-16  6.4524308251271551e-12  2.3673625150382723e-19  -2.3291760703808799e-19  -3.6512021031888234e-22  8.3885536832571421e-22  -1.8795279489284629e-23  -7.1372757365517834e-22  9.8483815396406423e-22  -2.5709953703211878e-23  -1.9274178875597112e-24  1.6074926998937727e-20  -2.6355587286501210e-22  -8.8332856108172202e-22  4.9782839142073119e-22  3.2613481634636242e-16  -7.1890284040727552e-20  1.6182871617789063e-19  8.5704015601038974e-14  -1.3342515634630158e-15  -6.9071726809410015e-17  -8.6566642246326591e-14  -1.3332473865567244e-18  3.4752056394807026e-22  -6.6423358381083137e-24  -2.9178898626502902e-17  -2.2310259327409080e-17  9.5407261959261359e-23  3.9444735887857415e-22  1.6042240151758214e-22  -1.4486767249569739e-14  -1.5687145354620069e-18  -8.2472406480075791e-13  1.2171038222931129e-16  5.6135011505971889e-17  -4.8495964564489856e-19  3.4349183613211121e-12  -1.6968592645172621e-13  -1.1069111097094860e-16  -1.5115306433524798e-14  1.0023793848508016e-24  -2.0558278060415923e-16  1.1149177324181094e-16  -1.3136744192267193e-12  -1.9063050525259492e-16  -1.0291871033608295e-23  -2.0970550127088422e-22  1.0410280747656279e-13  7.2871570420378390e-10  2.5935635644593205e-19  1.2419184818540219e-10  -8.9346086710783870e-22  5.7622179791991465e-20  2.1709164598339884e-20  -8.3357395545761036e-09  2.2361830716514756e-16  -8.2626985325112894e-16  -4.2046857927866911e-14  -1.1115645565149044e-20  -6.4561590619421180e-21  -2.9630630297606671e-18  -5.8902642295868494e-23  -3.7408639636068322e-21  2.1392897834774655e-14  -6.5887775056808173e-11  1.0925323051959907e-21  -4.5038099585847599e-10  2.1612897136021763e-19  2.4554009944898171e-14  -6.0856324096977960e-12  7.4040688567280293e-08  -4.9295823683860611e-15  4.5879338790342245e-19  1.6981563723310196e-13  -2.6834445544741974e-15  8.9157015363507159e-15  -1.2279245355649568e-15  4.3625031811401228e-12  -2.9989642121990603e-17  2.2983993848685450e-17  2.0522348562997128e-17  1.2733053524706363e-12  -3.2666885549266009e-11  5.2913963441781614e-10  1.2566539107796298e-20  -8.0238327070583168e-15  3.5084218406507600e-23  2.2571875833234213e-19  3.9830675269804762e-16  -1.1853374081824885e-16  6.7895577706040348e-16  -1.3088078094956845e-22  1.5339215080877152e-15  1.5807479932078797e-16  1.2419795669071765e-09  3.7600141423781515e-18  -9.8044387187213171e-24  8.9384243047477684e-23  7.7439136496175561e-12  -1.7400057109321044e-19  -2.2103331951919785e-18  -6.9812225574490946e-23  6.6156204642358376e-17  5.1368542774894139e-23  8.4112677208674705e-23  -2.7073302962721216e-25  4.6309520783658974e-09  -5.9383065802020976e-21  6.5341325166644667e-10  6.1301656487834261e-21  2.2380757583950496e-24  -3.4723896247974970e-21  3.7672324335862108e-18  -6.3420341889758863e-18  -2.1751814854115662e-19  -5.1665296564253975e-15  -3.8408065561509793e-18  4.3913183803478425e-20  4.2903176730414908e-20  5.4540464046769356e-18  8.2497322174319698e-12  -2.9329437684148559e-10  2.0832973026710552e-10  4.1370404921326542e-21  7.9564833401092898e-16  -4.7316077548364446e-19  1.9709225715001490e-25  6.4979252014742731e-23  3.7198875800873351e-17  5.5343762377607266e-17  -7.4170580049446149e-18  -5.1521577727987084e-17  -4.1489098063367614e-20  2.1393282308606631e-19  5.5295719834368484e-20  1.0775924116361756e-09  -5.3942404613689417e-16  9.4560202801737456e-19  1.0775061834933224e-14  -8.8214680564630168e-10  4.8881285129555227e-10  -1.3553017565204105e-08  -2.2016046149229753e-08  -1.0339032761616915e-20  -9.2069906331152918e-13  9.0698999176060499e-16  2.2235738605227708e-18  1.3980074810358998e-16  -9.6217075443997946e-17  -1.0129273812432085e-27  2.2142305859642451e-25  -5.6299043558483512e-14  5.4146820360021609e-20  -3.4805395042361080e-19  6.8244121339506365e-11  6.2533084694353093e-20  4.2437209973165990e-13  1.2589595034297233e-20  2.0049619695281851e-14  -4.9537692480544278e-14  5.9954512270170863e-22  2.2441973926521542e-24  -8.5538918580770575e-10  4.7879097109509437e-13  -5.6140818855210312e-18  -6.3179317405587582e-18  -6.0789633941274184e-18  -1.2930284559515743e-25  4.0781083640605956e-22  2.4577980360440270e-20  -2.3062952999340885e-10  -2.9739540741822058e-15  1.3255888385298735e-20  1.1352299708423519e-19  -2.2275685608371490e-18  4.3706774498006622e-19  -4.2929013777252628e-20  -8.4889437339294393e-20  1.3734820110402993e-13  -6.7583500332528274e-13  -3.3009031158670086e-17  2.1251776046788030e-21  -4.8960082539559354e-19  -1.7477144248884012e-15  -1.3405901600227727e-21  2.9734893031318665e-18  2.3850007221404893e-11  -2.0839869350067636e-14  7.9164828182115089e-17  -9.3437763197313208e-20  -1.9618746884920318e-20  -6.6739959618174841e-25  1.1154839522321263e-18  7.9878094257458943e-11  2.0283790736948365e-17  -3.5209353178999872e-20  -4.4179221337325622e-16  -2.4488099156839516e-18  -6.2150941482190670e-18  -1.0908068978556690e-16  -5.0938474740946632e-16  -5.2945135275034824e-21  1.6377451325536729e-17  -1.2456611962823232e-12  -1.9379602891692292e-13  1.1214227523998485e-14  8.8001108102058829e-14  1.8613453987056101e-11  2.7024941394772062e-14  -1.9577630510754426e-15  -1.2133989501106036e-18  -1.9228262489262542e-19  -6.4809990587838033e-12  1.7772074375634161e-23  4.4814531789521622e-10  2.1488981513763982e-06  5.5182069226128180e-23  -8.3971499090138015e-20  6.7634230349276725e-13  -4.0956001654213777e-18  2.1575983776809041e-11  -1.7174849282779496e-19  3.4836786428303824e-21  8.1617635469132562e-22  1.0955793242023573e-21  -2.5323980389481566e-21  -5.4163112416393236e-15  -1.0472816643874463e-14  -6.9617158226600017e-19  1.3110172720845484e-16  8.1538756652640615e-21  2.1838677199588935e-12  3.2057647789563441e-12  -4.3963660372052179e-12  4.6825942131353530e-16  -4.9107996330594384e-20  -7.1381582373185895e-16  6.1123137243676418e-13  1.1184263098084607e-13  3.7357441544457518e-13  -2.4405478072597483e-15  1.0973434142476419e-17  1.1460124289003879e-07  -4.9467476059468437e-23  -3.3563947288584327e-16  1.4663137791661806e-15  1.5403532588379123e-15  -1.4221583568899847e-19  1.1270506180488094e-19  3.2475542184775969e-23  -1.0593577426970992e-06  -2.2206737271575175e-12  -1.7626887258438834e-18  9.7654146787296099e-13  -1.1915944884809946e-16  -1.1029700099516914e-21  -1.8634096519697511e-15  4.0235367070537687e-18  1.2996862944505096e-11  -1.1161765344063436e-19  -1.4340980667310968e-20  -2.1657344837720608e-18  -1.7709388269128100e-17  3.6485381799537037e-23  9.9871559998179332e-19  -1.7748548075625602e-21  -7.5229101995175253e-15  -6.6216729158394668e-16  8.7971676714452075e-13  8.0510819629264895e-19  4.8245507014506822e-16  2.0060733781355884e-15  2.7330207040756926e-23  1.1231816040108094e-07  -4.8140457981843224e-20  -2.1628780113637068e-18  2.0146277879649976e-17  -7.8990906282300250e-14  -5.4723454420118197e-13  -1.0960229144289005e-20  1.0720800529393309e-15  -1.2013691985379577e-10  -1.0881380161472932e-19  -1.1441575923996047e-16  -1.5467075142943101e-17  2.4465806189756651e-18  1.0062308507211988e-20  -8.6778930832118503e-18  -2.1964770571138930e-11  -8.1545292938684545e-07  -4.0361581544914940e-16  -1.8297474935107198e-16  -8.3085448815103286e-26  -3.3082936955630815e-16  -2.3546212817451990e-16  9.2746504119084500e-13  -3.4715163381747536e-21  -1.1861659221491285e-20  -2.5733904468943783e-21  -1.3996655698442280e-13  1.0255876127133707e-23  8.3018202018567911e-24  -9.6252886723739438e-24  3.2665324878462131e-22  9.4972431287207136e-14  4.1212259944152920e-12  -4.4973060421429799e-14  -2.1448967084308971e-22  2.8860452300332080e-15  -1.1322552854332876e-18  2.9182068700815024e-14  2.7319391845146337e-21  2.9966954334299584e-11  -6.0705414209646766e-13  3.3586238728796478e-15  9.7825471540709523e-17  -4.4078288112224773e-16  -8.5472756412925388e-16  -1.0380432477499582e-08  -9.7306250378260277e-10  3.1291049566215450e-10  9.3674006895680685e-15  -3.6029721508535670e-20  9.5179019915454249e-11  -4.7861311728422592e-22  -1.7486920019081186e-20  -4.7307093035195051e-21  1.5088161843762354e-21  -5.7130150109881720e-21  -6.8400313848698033e-20  6.2480413767172162e-24  3.4434256001524586e-13  -5.8469240374201504e-21  3.3109342016575403e-23  -6.6778949468314300e-21  -1.8959032741158313e-19  -4.1791232805489113e-19  -1.3016217351673029e-14  3.3686573808972933e-26  -6.3061841452729039e-26  -2.0294849121979291e-19  -3.9411710452784070e-27  6.9153064236061695e-12  1.9047577349141651e-12  3.6756040582478059e-12  1.6509524373283338e-10  3.4150662261483467e-20  2.2669914897064338e-10  3.9066335763763970e-23  -3.1601819127891064e-14  2.6185956261748247e-18  6.7934482075415751e-18  -2.2575103717045408e-16  -3.9733136701261499e-17  3.3042430740025886e-14  2.8208657663711860e-23  9.2689528345898889e-23  -7.8100541859004621e-21  -1.2312218735076759e-21  -1.6822045296991540e-22  6.2580427793133974e-19  -2.1655554374432188e-13  1.6393260739871940e-18  2.1562427765820686e-23  1.5017617638802806e-15  -1.6716223292751811e-15  2.3214763313645502e-15  -2.3252384392467400e-11  -3.9726651956933379e-16  -2.1727025835748707e-21  1.9958244822219014e-21  1.8192206178540220e-21  9.5237345182875354e-19  1.6029753722510676e-18  -3.5281717350220783e-20  -3.1019312026117795e-21  -4.1558740776296753e-20  2.0412781388308194e-17  -7.9039010960259960e-18  -9.8476253199866044e-22  5.7476843943492280e-09  -2.2032749134697173e-08  5.2915423662128574e-15  -1.2234309865175537e-22  -3.6227654714975582e-21  3.9819997796895432e-20  -1.1215111801700850e-20  5.7382819855162107e-24  -1.7896769482697738e-21  8.5422531796567199e-25  3.4521665675536993e-09  -1.5313050671515086e-09  1.2175182336941681e-18  1.0592232644040837e-17  -1.6538385223693763e-17  -7.0769364979580981e-23  2.2276646127862943e-23  -1.5057478828057418e-18  -4.0354023251669008e-13  -2.3548902262328800e-14  -1.1506112829606907e-11  -3.6366710861195494e-16  7.2281107046906751e-12  -8.2264773116917771e-11  -1.9293746357095291e-09  4.0632097501354787e-18  5.6476714822248428e-19  3.9387725128372019e-19  7.4640955169330409e-20  -2.0801817484364316e-20  -2.3846004645488154e-22  -4.8470606412614812e-18  -5.0747864962916524e-23  -6.5550182615472596e-24  6.5852509641904573e-18  1.1059059965714321e-20  -5.4307534538655553e-20  -1.1066472132363677e-25  -7.6268082186493465e-23  5.9244242946661108e-17  6.8150026463869454e-23  -2.8235172510963383e-17  -2.6811673248157483e-19  1.3725919116410664e-18  7.5449105265415494e-21  -3.2737066597720353e-13  2.9672865076254242e-16  5.8346228230828205e-16  -1.9304397437148419e-19  2.5718921325269892e-22  1.6111611469393513e-23  1.5667140473639140e-24  -9.7458490922190153e-26  -3.4547792116817342e-23  2.3133247424888053e-24  1.3966472913299533e-17  1.8568255733660133e-15  1.4447461875334545e-19  -2.4005825223462387e-18  1.4494107247473595e-14  5.7828780222021440e-14  4.5609628100263863e-17  7.2303532003569577e-17  2.0707921840567538e-15  3.7432867776198288e-19  -5.3174238182026309e-17  -4.5576303228405577e-20  -2.1143789540363028e-21  2.3607290042984214e-19  -6.5077436238389649e-20  -2.3889490352878477e-20  2.9963146524973431e-21  -1.4722486249842296e-10  1.1663440178562748e-15  -4.4540000488838957e-21  4.4543046026374404e-13  7.8754262718259928e-18  -2.5480966730591565e-17  3.7754173282979572e-19  -1.4701892121441420e-15  8.9360062558630985e-09  2.2844526974235206e-26  -2.9890140029432947e-26  -1.1526233432673445e-12  1.1130140335203944e-24  -3.8813582523186737e-20  1.2575763077477055e-10  -1.1390675596560048e-10  2.2006252510665950e-09  -6.5982713161323875e-22  7.8161619467560254e-21  -8.7645550702803550e-09  3.5015096765283448e-14  4.8046159529768991e-23  6.6197112611986471e-09  -8.5834646266533082e-21  3.5950913269567859e-26  -2.2460305374847859e-18  9.2153566025896421e-24  -4.7044127889223842e-20  5.6716666968271740e-16  4.9604115913652067e-22  -4.4853049097807797e-17  -3.1283275213521474e-21  8.7086928496906733e-11  -9.3821209046838294e-16  4.4163942801837359e-08  2.6218863945893864e-15  4.4818195207027510e-21  -1.1303967537711495e-10  2.3507848314457824e-18  8.0698216863201950e-16  1.2901297450774528e-21  -3.6371404426773231e-17  -9.3054961560830430e-21  6.6830541629948405e-23  -4.6286338814328567e-15  -1.6138443018673399e-15  -1.3087511576318427e-21  2.3400674741277751e-14  1.3948817196896160e-11  -7.6067908354432197e-13  2.9270197361323520e-11  -1.3633096101816951e-21  -6.7248173594499702e-19  1.4989128419276960e-16  -2.3085004367881420e-17  -7.7190660448851908e-12  7.0480667429183356e-20  -4.0360946137684279e-20  -1.7005943625100540e-19  -1.2208518694467819e-18  -1.4506126864808421e-17  -8.9140067375278134e-21  4.5116953834996709e-22  -1.3903247373760835e-07  1.7029454711259530e-08  2.2865376277121369e-12  -4.5755954073821297e-11  2.5809457810355862e-12  -2.2432006676561801e-11  -1.8932252546384651e-12  -4.9095193582417916e-17  -4.4607032482108989e-17  8.6864047693744716e-12  -4.1384399170358414e-22  -6.8047735414950615e-17  1.3755029710234509e-19  1.0160191305505557e-13  1.9416040241068800e-14  1.6331533782647294e-13  3.4795913491220379e-12  -3.3480674411429733e-22  6.9517618739421575e-23  -1.2973538058945920e-14  2.8109696815160261e-17  7.7749254192412746e-18  1.7971573781735952e-21  -1.5372392779578499e-20  1.5728125588130268e-14  4.9048386914361391e-15  -4.8719350146044741e-22  -2.9323167202261283e-22  4.2907551195135157e-20  3.0304794964983849e-16  -4.3377537986375792e-16  6.2800091640966533e-16  1.9963835749069477e-16  -7.7953962162833593e-14  1.6937089830829907e-16  -4.0112963661918606e-13  -8.9331962238048019e-25  -3.4446545565051707e-22  -2.2037661120220361e-21  -2.0874723784055428e-17  -1.0619715823330176e-17  -1.8751880312448368e-22  4.1087911368921465e-25  2.5430127772672504e-24  -1.9319648645513532e-24  4.1636345265453755e-15  -9.9154843238363335e-16  2.2472164441542966e-17  -1.1642502002770508e-13  -1.0533186210710330e-13  -4.7897510808790943e-14  -7.7737185170328226e-20  -8.5274358219152233e-14  4.4488146183077695e-19  -1.0673580485429093e-12  -1.7411851214139158e-23  8.4043439039778005e-20  -9.0232648504330812e-20  -8.5719448096101321e-19  3.5208293870460865e-19  -1.9588630743663544e-19  1.2046333448395332e-18  1.0889968648529303e-18  1.1259528547130137e-17  2.2522792336140656e-18  7.5655892756433923e-17  -1.1877469568673880e-23  -2.0782534120024912e-28  -9.2695917102294105e-22  -2.5372161274298530e-20  3.6164729963969803e-24  -1.6442122977587915e-21  2.2726470968466729e-22  8.7329173528106978e-24  -1.3159850854874014e-20  -9.3197847238565593e-21  -5.4207730970131088e-21  -9.4711803340145215e-22  3.3297944326308580e-21  8.4179529320939670e-26  -7.7521516122588450e-22  1.6293371027449685e-23  3.4900357198434715e-24  -2.6586026057468720e-21  7.0659717631716215e-09  -1.3091933127999913e-13  4.1702971451487579e-14  -1.2761713637719346e-16  -1.5994037851223181e-22  -3.3154404270922687e-22  -6.2510101265765795e-20  1.4217607174592349e-25  3.3523842451033197e-12  1.8217767961222054e-16  5.7547544952977870e-22  3.3372041893276037e-13  -4.07265266002