<?xml version="1.0"?>
<VTKFile type="UnstructuredGrid"  version="0.1"  >
<UnstructuredGrid>
<Piece  NumberOfPoints="3002" NumberOfCells="5870">
<Points>
<DataArray  type="Float64"  NumberOfComponents="3"  format="ascii">323455.6100285493 6048753.88242996 0  323455.6100285493 5954782.59950515 0  405920.1480513444 5954782.59950515 0  405920.1480513444 6048753.88242996 0  405920.1480513444 6001768.240967555 0  323455.6100285493 6001768.240967555 0  364687.8790399469 5954782.59950515 0  364687.8790399469 6048753.88242996 0  364687.8790399469 5996367.117560402 0  323455.6100285493 6025261.061698757 0  382226.6271443229 6022560.499995181 0  405920.1480513444 5978275.420236353 0  323455.6100285493 5978275.420236353 0  353897.8957397301 6022560.499995181 0  344071.7445342481 5954782.59950515 0  385304.0135456456 5954782.59950515 0  405920.1480513444 6025261.061698757 0  354379.8117870975 5975574.858532775 0  381582.8168806895 5978840.396198289 0  384950.2598624413 6001768.240967555 0  344643.0480768835 6003429.02033719 0  344071.7445342481 6048753.88242996 0  385304.0135456456 6048753.88242996 0  339717.0321562298 5986078.187627405 0  337515.036058786 5969821.016310448 0  368062.2614420265 6013076.224998265 0  368062.2614420265 6032044.774992097 0  393987.6142659165 5988729.699941677 0  405920.1480513444 6013514.651333156 0  392856.2821527076 6034589.119828064 0  393514.9611654527 5968369.338068204 0  339399.8087404341 6032061.482581838 0  323455.6100285493 6013514.651333156 0  374995.9462927963 5965504.865595459 0  354379.8117870975 6037976.901948514 0  338123.9088969378 6017031.529131207 0  367397.3120126425 5982072.559192053 0  351882.5752379905 5991998.990225234 0  376945.425450199 5991232.708824487 0  392265.0061656896 6013300.936254065 0  357029.7426706699 6006608.947964352 0  380093.6207558212 6036880.127749795 0  323455.6100285493 5966529.009870751 0  405920.1480513444 6037007.472064359 0  405920.1480513444 5966529.009870751 0  323455.6100285493 6037007.472064359 0  333763.6772813987 6048753.88242996 0  405920.1480513444 5990021.830601954 0  323455.6100285493 5990021.830601954 0  362879.3643765316 5966837.319094267 0  348367.6438548031 5965604.161682394 0  334493.1989038612 5996935.948935225 0  395068.5043068817 6023875.372615605 0  348216.0324377587 6013504.844950221 0  379305.9090074943 6011603.390019651 0  372523.5158233726 6003480.000732267 0  395435.2039568929 5999384.346358113 0  395612.080798495 5954782.59950515 0  333763.6772813987 5954782.59950515 0  395612.080798495 6048753.88242996 0  374995.9462927963 6048753.88242996 0  374995.9462927963 5954782.59950515 0  354379.8117870975 6048753.88242996 0  354379.8117870975 5954782.59950515 0  335074.5981535012 6007206.680367459 0  391925.2695590468 5978591.908877409 0  371969.1707190623 6022560.499995181 0  383872.162544519 5969415.106147043 0  358038.7139835292 5984533.09712744 0  369699.869182786 5973102.2359358 0  369841.9126663716 6041099.453006387 0  343176.7440329155 5994428.220622956 0  362933.5332293962 6024385.235173292 0  330640.1760208776 5984148.625419154 0  348684.7494355051 5983110.856817525 0  399094.9690929834 6007537.420809742 0  345447.6324516311 5974162.84917082 0  332859.7749513451 6039150.972778062 0  344517.044630671 6024057.945416138 0  332973.1214415312 6025037.914505113 0  341428.0126373461 6040493.820728126 0  385874.264691618 5992757.40885039 0  350337.3662538711 6030387.535304286 0  359887.2373602368 6016186.250094838 0  377097.8989316926 6029115.217702097 0  338917.7109078235 5961484.016839475 0  329495.5261590715 5972402.215053552 0  336644.7280634616 5978216.610794215 0  330688.6715098422 5962480.256438018 0  359899.8039476132 6031963.415584587 0  399746.255941904 6030426.523907755 0  385511.6875144855 6030368.508996127 0  387377.735783329 6040763.821024337 0  398832.192399829 5974431.100387635 0  387992.9498994246 5962432.032572681 0  405920.1480513444 5984148.625419153 0  364925.7641745284 6005782.953640081 0  361769.877068089 6041226.651684469 0  398452.9199001931 6040850.732439541 0  398946.6205243983 5962252.502309519 0  362305.5577564609 5975984.89789681 0  356822.8065216601 5998470.186307689 0  386900.7115926162 5984820.732438302 0  329528.0119279922 6032067.230024892 0  331139.6939744562 6013813.572928222 0  398457.5876798834 5982541.698799337 0  405920.1480513444 6019387.856515957 0  398685.5166750694 6017257.578706384 0  348587.9424884976 6042755.309150081 0  369841.9126663716 5960143.732550304 0  380149.979919221 5960143.732550304 0  359533.8454135222 5960172.384722514 0  377147.8814772839 5972649.581024994 0  341756.3455763521 6010124.092444684 0  355615.8176864882 5966311.193813809 0  369144.4338274571 5989807.770003954 0  375185.9047422862 5983510.422041401 0  323455.6100285493 6007641.446150355 0  391856.7960121195 6005888.565703365 0  371978.0245217044 5996361.134308098 0  405920.1480513444 5995895.035784755 0  378877.1880032702 5998073.745937059 0  359056.6617417652 5991643.489540118 0  399278.8743430426 5993436.466134224 0  386116.8775939071 6009922.097099247 0  323455.6100285493 6019387.856515957 0  388994.7833819839 6019826.789191471 0  348897.6207366391 5998116.079250046 0  345456.3301153719 6035064.814295612 0  323455.6100285493 6042880.677247159 0  334124.3013408988 5990072.953472659 0  377097.8989316926 6018059.782440464 0  323455.6100285493 5995895.035784755 0  342871.8474798963 5980154.238874755 0  373596.9793292385 6035659.183886081 0  380149.979919221 6048753.88242996 0  376327.9292813152 6042294.581731233 0  329163.3548105369 6004704.843558955 0  350303.9432136903 6007093.032074522 0  383982.6552804571 6015912.664375832 0  345515.490569988 5988567.439252969 0  379019.812877927 6004678.052169549 0  365541.9137639466 6018750.691894444 0  349225.7781606728 5954782.59950515 0  352493.3399767278 5960815.406895458 0  363683.8130458911 5986976.225872464 0  386666.791301207 5975084.583584332 0  368937.6553346639 5966171.092344863 0  400003.9882214358 5968352.273777306 0  328776.0063842635 5992958.433193355 0  339958.4428758043 5999572.344589042 0  354577.7732363954 6012555.454074449 0  328609.6436549741 6048753.88242996 0  382053.0280278458 5988228.496807038 0  330708.6817934912 5978212.973348036 0  372084.7734679543 5978495.086505585 0  358568.2738174705 5971419.415228934 0  328931.2672829705 5998832.905089681 0  323455.6100285493 6031134.266881558 0  405920.1480513444 5972402.215053552 0  405920.1480513444 6031134.266881558 0  323455.6100285493 5972402.215053552 0  405920.1480513444 5960655.804687951 0  323455.6100285493 5960655.804687951 0  405920.1480513444 6007641.446150355 0  323455.6100285493 5984148.625419153 0  405920.1480513444 6042880.677247159 0  346648.7613474604 5960023.05127712 0  342415.3891593561 5966358.988213831 0  350507.6510228226 5971111.740321856 0  391773.9667214506 5994456.117700323 0  338875.8905424621 6026088.827345025 0  361429.1735454847 6010511.262533597 0  389395.7028803263 6025805.543023561 0  392895.6464692951 6043315.288173481 0  332846.8296575367 6019296.633131165 0  373337.4404588729 6009693.515402478 0  336544.3064612215 6043648.151399015 0  348610.2411382072 6019567.839754772 0  381943.4597763228 6042183.394750732 0  355630.0631288611 6028071.82801846 0  363941.5238882306 6035967.852698964 0  328179.67203552 6022271.326978176 0  401066.2857736665 5998807.415073814 0  344387.1099621175 6029612.545574771 0  393435.2235156003 5960233.556458537 0  400735.9970493424 6022675.638064924 0  393708.5772019727 6029179.837160029 0  400609.0696943338 5987857.851798974 0  361753.6614662939 6001152.171757337 0  400766.1144249197 6048753.88242996 0  353363.0524357285 6002630.165620538 0  343248.328463803 6018790.640008039 0  356419.8105951758 6043365.392189237 0  390234.385899412 6000759.497967276 0  368336.1168551637 6000220.532318851 0  328609.6436549741 5954782.59950515 0  387520.8298169724 6035372.992507171 0  400588.0280660195 6035823.299583429 0  329021.6598427091 6043194.252697862 0  393371.710206733 5983576.325812268 0  393638.9721728675 5973623.513063556 0  371727.9212466564 6017113.044457142 0  364687.2762977295 5959941.212693035 0  374995.9462927962 5960346.83186599 0  369841.9126663716 5954782.59950515 0  400766.1144249197 5954782.59950515 0  338917.7109078234 5954782.59950515 0  369841.9126663716 6048753.88242996 0  359533.8454135222 5954782.59950515 0  390458.0471720704 6048753.88242996 0  338917.7109078234 6048753.88242996 0  390458.0471720704 5954782.59950515 0  359533.8454135222 6048753.88242996 0  380149.979919221 5954782.59950515 0  349225.7781606728 6048753.88242996 0  339867.4956514095 6005339.817053361 0  333737.9460226952 6002130.523287664 0  336955.8140048417 6012008.440073739 0  377097.8989316926 6023232.32559834 0  371748.9790486701 6028016.629988787 0  338146.5171983215 5993298.164761053 0  355016.8390227688 6017610.913088997 0  393953.1528190996 6018968.416019509 0  335185.8133477239 5965142.63403323 0  328616.6041642396 5967263.80307608 0  380314.9487662361 5965460.362415641 0  354622.8993466098 6032976.142863722 0  328521.4725131759 6027215.026914048 0  334465.0783479523 6034070.534389696 0  328123.6212682287 6009699.206425843 0  381889.5169855529 5973936.741901617 0  359122.3484437474 6036790.002992895 0  386341.6533148278 5979963.279841923 0  400798.2159679119 6012477.871311778 0  388538.3765260249 5967461.292146791 0  340833.8784183678 5975728.708105717 0  355307.6239213505 5988552.151815021 0  362181.4274823388 5981261.937800813 0  353784.0322742948 5981044.538811012 0  358045.1698423899 5978741.391518688 0  328423.7350325213 6036912.015930048 0  366897.6876966125 6027277.723668203 0  347355.1745641421 5978532.307510624 0  376820.5060332146 5979033.270735624 0  349378.1778589479 6024378.632814493 0  327189.2282939323 6016451.253924556 0  338433.8773236172 6036753.902881841 0  350141.9760340559 5987605.90026687 0  363794.7083927878 5991713.491814731 0  350325.1285660182 6035273.515460094 0  382355.9358007369 5983507.499638396 0  327107.0747437811 59811
[...]
<PointData  Scalars="f_35911-1"> 
<DataArray  type="Float64"  Name="f_35911-1"  format="ascii">-3.0469591172055126e-25  -3.1319666314806281e-24  -4.1240710612350990e-19  1.5658381071329622e-22  -1.8380816023990985e-13  -1.5308486702481139e-19  1.0488244622983600e-17  4.4971092957926572e-19  1.9407814344205024e-05  6.3649723914385208e-21  4.7915578401216522e-12  -4.4040509039645065e-15  9.8761611226277379e-20  -6.2448701091545075e-12  2.8240543742700734e-20  -2.2042466070561234e-18  -2.1108949856910441e-17  2.3477420175467244e-13  -3.3482323427144141e-09  4.3164082884365816e-07  1.9073241945293282e-11  7.6312668195972348e-20  -1.0590965026943485e-19  -6.5362004170751853e-15  4.3162870116125409e-19  -1.7314094666826857e-07  -1.0873548224540223e-13  2.1795359533215339e-09  1.6730271019795029e-15  7.1185359691697925e-17  3.1369598594462920e-13  1.0936910907232450e-18  2.4678643912135196e-19  -3.1379863275781261e-14  -1.0971044987851710e-15  5.7321719247790961e-16  -3.1341127067170644e-09  -2.6433798053858912e-10  -7.1455123372479306e-05  5.8601105550426008e-11  7.1983680394983595e-08  1.2860804169428162e-15  -1.0685997194215838e-21  -3.2556099011351955e-20  4.3368996592780615e-17  2.5923347417347731e-21  -9.2219675889560852e-23  3.2688847719585440e-13  -6.4698956701026802e-19  -2.6805028674152673e-14  -8.8809369778695002e-18  1.6539331093652098e-15  9.4014983066988859e-16  -3.4953117851546265e-12  4.9043627933793087e-09  9.2049211385697194e-05  3.3289675348338176e-09  5.3446919865360524e-18  6.0726125462653512e-22  -9.2737071441455685e-21  -3.1953996649979887e-19  -2.0123240058035957e-18  5.2714531006611807e-20  1.6195501855545908e-18  -1.1860880744621632e-15  5.4780251155066683e-11  1.8663697496410792e-10  9.3094037600067912e-12  2.4082801826137213e-10  -1.1070431611130449e-11  -2.9000428886895879e-16  -6.9511902914114909e-12  -3.4160035207442282e-11  1.6585957432548420e-17  -1.3603835178497532e-12  3.3622528350244691e-13  -1.6460791354113155e-15  -4.4830152414764558e-21  3.0612796304470538e-15  -2.8086797372272870e-17  5.4505908844502499e-19  -2.7869853525733422e-06  -4.8001671934407250e-14  -1.8547047057680676e-09  1.7234515820273685e-15  -3.2577679900495937e-20  -3.1128283126233907e-19  8.0180224882914405e-17  -1.2174951732594982e-21  -5.4652711649749270e-14  9.1747649650294910e-18  1.2235841440517273e-13  3.8293360542379446e-18  8.2089121762978739e-14  1.8845718822961930e-14  1.6337057574670372e-13  -2.8928352286570190e-05  -2.1322615414110929e-16  2.2680211367314978e-19  1.7093405892626566e-17  -1.3343365909464447e-11  -8.3361255860950836e-08  5.8622340112933337e-08  -9.9941823856396594e-20  1.3811903324497496e-17  -3.0507197368141575e-14  1.0506582980823901e-16  2.8882338405286229e-13  8.3778120831217595e-18  -5.6811523452240963e-16  2.8141044336768072e-16  1.0975548786714499e-16  -2.1280630168035219e-11  1.3086888575866935e-14  9.4718426651621034e-16  -1.4811498675553331e-06  -1.4654667280099448e-07  1.4913831350516254e-18  6.9756525039794960e-10  3.4954483418413456e-04  -4.5698980469339672e-14  5.2768730525681370e-05  -4.2846709214677612e-08  9.6254505352589006e-11  -1.7404465381154020e-09  -1.3662854117231566e-20  1.2252088134800728e-12  1.1683638499888981e-09  -7.4363379684788140e-17  6.9561605049786571e-23  3.2215893892291788e-15  -1.1508352966870458e-09  3.1185150166046076e-18  1.8739188192137081e-14  4.3699846246086149e-16  5.9051439625451989e-19  -1.4071215339852978e-17  2.5026202388112480e-17  -3.3481716413893272e-10  -4.3773846605867249e-11  2.7754967423705551e-12  -2.0295645688712762e-07  -1.1930544019796639e-09  -1.8722228367641761e-19  -9.8384572261073354e-18  8.0163873649649500e-08  -1.1290405391174002e-10  9.3137464761777253e-15  -8.3754040975055994e-16  -1.0385436144642567e-16  2.1745766182875912e-12  3.0500445561105645e-09  4.5603907474698197e-24  -4.4866617903920410e-06  -3.1206246605417825e-19  5.1629960081277593e-09  6.9102698841404953e-13  3.4316655229954835e-19  7.8173675911898839e-22  -6.9197187691936952e-16  -1.2333106845900049e-18  1.3718685249557741e-20  2.0103474213324104e-18  3.0836883954831640e-24  -5.8253460395832621e-16  1.5406631349788720e-18  1.3193376157682704e-22  1.9401433670091252e-19  -3.8080635812541083e-18  3.1159389631144032e-15  5.6458012230050958e-08  -7.0190680999229883e-17  -4.5105502327069008e-08  -5.6602973154158289e-15  2.6568834487013012e-19  9.6947564721200909e-18  -6.1471437808987176e-07  -5.3237550651743030e-21  -1.4386422067725638e-12  8.9899813786992704e-19  -3.5285167912151955e-13  -1.2564751490640273e-15  2.4431909916737601e-19  -2.3042429629591737e-12  -5.5154118360504234e-16  -5.0839131031867685e-16  -1.4377609899674645e-16  -1.1953209170619795e-16  -7.3454520046128919e-13  1.5042701006182664e-06  7.1890055794731723e-22  7.7439457619199570e-09  1.0987952562820308e-13  3.5011102154804542e-18  -6.0683590304407416e-09  -4.0041238332584857e-03  -8.0834704061352635e-23  8.6055091843756026e-17  -2.0533829799317065e-19  1.2319299103876814e-22  -6.9579136372052311e-12  -5.2913493624220050e-13  4.3331205708684386e-09  2.4930417867953847e-16  -3.1659639483620609e-17  3.6990587316383922e-18  -1.3953454981709890e-18  3.2579730439337611e-21  -1.7582433730235266e-18  1.8060467255897776e-18  2.3657554678118715e-20  -1.6836958465156643e-21  -9.6719119540068936e-18  -1.7031649449391986e-19  -3.2365020959080775e-18  4.5142786973673451e-19  9.2518176488600562e-13  1.1427064803478738e-14  -2.3686346939074986e-15  6.2214160151840306e-11  1.9797939769669689e-13  3.1475382132680476e-13  -1.1063510344320589e-10  1.9916602393712862e-15  -9.9620214586230144e-20  -7.1265902265822632e-22  2.1547397350946463e-14  -2.0416852881193548e-14  -1.5301627432858687e-19  -9.7147000220795826e-20  -1.3615094823653892e-17  6.1331583127688213e-11  -2.3966115562085769e-15  4.1983309930780908e-09  -2.9366753479079232e-14  -5.0744280943729794e-14  3.0118247784143048e-16  -9.1822032695849326e-10  -2.0786898961890848e-10  -2.1623651161569556e-12  -9.1969381654666323e-12  -2.3520893992870784e-21  -2.8237707504919610e-12  -5.4600613923033093e-14  4.0337996028570067e-10  -2.6194846622200886e-13  -1.3714819057037616e-19  -3.1236685990640600e-19  -2.4617670749571445e-11  -2.2149501685683081e-07  1.4812337127048234e-16  -1.8250001227239867e-07  7.8402374987030960e-19  -3.3625958480094982e-16  -4.5172650157973661e-17  -6.9447518819203843e-07  -3.7127416562478384e-13  -7.6724476658581854e-13  -7.0179705554685542e-11  -1.2094392730693619e-17  1.9402928384509401e-17  -5.5643327222986237e-15  -4.3542025237631464e-20  -1.0937455389037190e-19  -8.4220042698121990e-12  -2.7274051326961642e-08  -1.3357082193490123e-18  3.2659284943112115e-06  -3.6119650839344258e-16  8.7656135782061645e-12  7.1671671591956106e-09  -8.8342709524378760e-05  2.5244770903124500e-11  -3.8588983898385895e-17  -6.1003401788800598e-12  8.0079565309016402e-12  9.0780944743418363e-11  4.2858944322562039e-11  -2.7265700453710079e-08  -4.9322548826726134e-14  4.0478956203763712e-13  -1.6085263752323454e-13  2.3438397537516657e-10  -6.8343547028576077e-08  7.0073171033164734e-07  1.2946503501714162e-18  9.3692888086644799e-12  3.9324748727638247e-20  -9.0691678744776231e-17  -1.1342336306415446e-11  4.1710362121677059e-14  5.5627466077072242e-12  1.2929607927114096e-19  1.5618821515404793e-12  1.3496967916060417e-13  -1.6156703437624854e-06  8.1145437773654497e-16  1.3975140556270684e-21  -7.2552694754134270e-22  1.7535658958367298e-08  5.4181400233541637e-17  3.6971579865009928e-16  1.0568315659378988e-19  -4.5997545852428005e-14  1.1065130917591572e-20  8.8756745144706181e-21  4.2257309967141400e-24  5.9521001697982488e-05  -5.0278211261680968e-18  8.7558912708148825e-07  7.8094197337464488e-18  -8.7993584004944117e-22  4.2272289112150753e-17  3.6302247843722452e-16  -7.9874592856156258e-16  1.0699456842823257e-16  -7.0684037577028373e-12  9.3561197002361174e-15  1.4989861952055608e-17  -4.1703461729642675e-17  1.4816072844458460e-15  -3.4855963902043759e-09  -1.6376226959020150e-07  4.9923587728934554e-07  -2.4538061827531400e-18  2.0549201187378761e-13  1.1789440258619757e-16  -9.0795093217680549e-23  8.9070756088700366e-21  6.4613434228392778e-14  1.3737452955545483e-14  -7.4895047225285034e-15  -7.7754738928179092e-15  -1.8472050799039721e-17  4.5460555013799028e-17  -5.4563915530238235e-18  9.6232533521290633e-06  3.2680089410122405e-12  -1.7008976401464039e-16  2.0030930028687450e-10  -1.8215800769740182e-06  4.6431856633291189e-06  1.0376922581871993e-05  -1.6210295896415330e-05  -1.4781081811534457e-17  4.0963585589961939e-09  8.2783765903428398e-13  -7.0273322123803169e-16  9.4431614515172046e-14  -3.4812983865702712e-13  2.6090884436342408e-24  -6.1340537071863160e-22  -3.1734099492895242e-10  4.5391669280439247e-17  -3.8490686772029306e-17  -2.4702060612020371e-09  6.4654394472180796e-17  -3.9180581045642146e-11  -2.1293726840511010e-18  -1.4340898135291422e-12  7.3353302207555336e-11  -5.6601672169533582e-19  -3.5675814038603676e-21  -2.6112590946627845e-07  -1.7802524644026260e-10  -1.9638572777031380e-15  -1.3348477596888656e-15  1.8802041609687002e-14  -3.2430416739402164e-22  3.5515018452342086e-19  1.9725386266233408e-18  -4.2227343225577811e-07  7.3189402389276859e-12  1.5614381819889764e-17  2.9421248009847511e-17  -1.1639873974016629e-15  1.2514419308207096e-14  -4.6435236648485004e-17  -6.9665684520525332e-19  7.9965815692158777e-10  -6.0253469915528030e-10  -2.4556548953849431e-15  -2.2481473237869947e-19  1.6505418708550714e-15  -4.5963994113729946e-13  1.1379713615501567e-18  -2.4056425110388365e-15  2.0586236059878517e-07  -6.8568199326755582e-12  5.1224393083796175e-14  -4.5193394879774830e-17  -1.1707015358554286e-17  -1.5362519651956271e-21  2.1808817008319849e-16  1.1837692001650609e-07  -2.1943194286165394e-14  -2.6196741983532269e-16  -6.9890922600963639e-13  -9.6643434293464719e-15  -2.4221920317059784e-15  4.3717268228819873e-12  -9.6255143433282297e-13  -5.7952445352677004e-18  2.1029658222419000e-15  -4.9370773500013792e-10  -6.0748854473388557e-11  -1.2115355999921709e-11  -2.7843322641179437e-10  -2.8807851522636017e-09  1.7521074961378767e-11  3.9682269346032550e-11  -7.6814260990650570e-17  -2.2500946178414766e-16  4.1748536473338366e-08  2.3671224250997236e-20  -5.2438671823890671e-07  -3.2493611524001087e-03  -1.6911317519196777e-20  -6.6797463840959689e-17  1.8995539871939580e-09  1.7970437622758976e-14  4.4461419574096348e-08  -2.2138152055519496e-16  2.6542293919733099e-19  2.0712297411107514e-19  5.7029341544176129e-19  5.2712815111963795e-18  8.1403276175667997e-12  1.0008125211857621e-11  3.8812180541583328e-14  6.7392166127155787e-14  1.3857580614929317e-18  1.6529801201918641e-09  -9.2763241658843776e-11  4.6511284060500999e-08  -1.2403356856174241e-13  3.1965058159353213e-16  1.3830640798255190e-12  8.2169708423567667e-11  -4.8140406460104394e-11  -4.2882875797374225e-09  1.5489962290512841e-12  1.2662187745600137e-13  -1.0046708721900028e-04  8.1138541288750641e-21  4.5193850937963213e-13  -1.6603656128265237e-13  -1.5291840553900232e-11  2.4359260642508606e-16  3.4749038268400494e-15  -1.1106257884267808e-18  7.6846354278507279e-04  7.0956334333516751e-09  -1.1655831113718537e-18  8.0182262525160801e-10  6.2748323626595681e-13  -1.2594572414428069e-18  1.5544116194943319e-11  1.3083425720643724e-14  -2.2030177046632950e-09  6.5441319020279899e-17  3.2428073918029494e-18  -2.5991206273640325e-15  5.1116535068988025e-14  -2.3910080209110133e-20  1.3995291855182847e-14  -1.3322340111060444e-17  -8.8560184167161274e-12  -1.6611748329542057e-13  -3.5587365971656114e-10  7.8094414268423927e-17  1.0980249815299246e-12  1.7027196397259974e-12  4.7683229245437459e-21  -5.2643640882614411e-05  3.3920375617530989e-17  8.1750176604255628e-13  5.4027567567147907e-14  1.3287709837968082e-10  -3.1340553247931594e-10  1.2258326184475529e-18  9.6327178999554132e-12  6.3998583027376904e-06  -2.2478580535573142e-16  3.8254748198629125e-13  3.0720268384221409e-14  -1.6852809957344690e-15  -5.1791064253412966e-19  2.4649997843036349e-14  1.4773587089505545e-07  1.2406847541361532e-03  1.9454163222291521e-13  5.0362395156790387e-13  -2.9575529364903571e-22  2.4084507931861772e-12  -2.3599032830610552e-12  1.9767924119779108e-09  -1.0916122130859332e-17  -1.1914330606607031e-17  -2.0300003846456225e-19  -8.9767979977001860e-11  -4.6265390484574349e-21  -1.7272653625547208e-20  1.8138084192861681e-20  -5.0943611903829854e-19  -1.0539216617360252e-10  -1.2931449864606001e-09  -9.7705159155563278e-11  -2.0139864162606711e-18  1.3694178800781692e-11  -9.0259378890951403e-16  3.0629672535345741e-11  -6.8172171532891928e-18  4.4766265503602222e-08  4.7486944902532318e-09  -4.6417800661685832e-12  3.9481495499027049e-14  -5.1036561007310991e-13  4.1403123853107408e-12  7.0221757659388724e-05  -1.5735102276579628e-07  3.7322214023617691e-07  -3.6891868996036675e-11  -4.3687068713275282e-17  1.2297044086115444e-06  -6.0722807138451774e-19  -5.3847002237669494e-19  1.7595486656903922e-17  -3.9110231670922473e-18  3.9477828131673454e-18  -5.0498068332391862e-17  9.5703260844684806e-22  9.8595340121448802e-10  1.8922855262092827e-18  3.8284843033827372e-20  -6.6328527662677260e-19  -1.2635653258191120e-16  6.7878560576705362e-17  -3.3894442894230546e-12  -1.1195133264984609e-23  2.6650948198125902e-23  8.9720560236373836e-18  -6.4346810094121796e-25  4.7356768499062223e-09  7.3025255674775118e-09  6.4847685700581369e-09  -9.1233954838708321e-08  2.1702316217368182e-17  3.2611466069845698e-08  -3.9769061484596081e-21  1.0869394116190637e-10  2.1380706150060959e-15  2.8859103523758360e-15  -1.6412394105473498e-13  -6.5864978946247387e-14  -5.5420673620044424e-11  7.9859506998222532e-21  1.3642042965083642e-20  -9.7657152748456328e-19  -5.9739685256797870e-20  3.3072177704000395e-18  -1.2879188580283966e-15  -7.2290532246352391e-11  6.9435372119392985e-13  -9.5281355558987792e-20  -5.6042888459632814e-12  3.7275951283368199e-12  7.3334680359559312e-12  8.6178895311477980e-08  9.8290284104627576e-13  -1.9440534595350277e-18  1.3592931613220217e-17  2.0252593603699963e-18  1.2366631133557479e-15  2.0361512780009708e-15  -1.9547892093981312e-18  4.5019442032697076e-19  1.0899993682588172e-16  2.6791033078029377e-14  7.7375562605667018e-16  -1.9919036154558424e-18  3.7958620740679785e-04  -1.4912293952141264e-05  1.5046576751598396e-11  -4.9875234608753554e-20  1.9088028755567676e-18  -1.6137784638278580e-17  2.1355483732839340e-18  7.8122190011951733e-22  -3.9487382227107643e-18  2.4392892753001743e-22  -5.7341685143243145e-06  2.6444638410227876e-06  -2.8480485149591553e-16  -2.2552060116394014e-15  -2.8967684030447869e-14  -1.7179394843150780e-19  -1.1250359137535455e-20  2.7123914927152297e-15  4.4076423033815696e-09  2.6838133730766957e-10  3.2884332960189718e-08  3.6765411583400503e-13  -4.5257045252165459e-09  1.1745156561861708e-06  3.7625730297435447e-06  6.1279719947353298e-15  3.8201572488639759e-16  -4.8854528461647247e-16  1.1075105746163005e-16  1.3790285748919295e-17  -3.4567190183788036e-19  -6.0618107945889656e-16  -5.9103481471068008e-20  -1.0069124252254633e-20  2.2100709433037671e-15  3.1001804641065123e-18  -1.2875964965784280e-17  9.8076563868695541e-23  -5.9024948686751755e-22  2.8937295618129976e-14  -2.3564688074330043e-19  -2.2842976386730272e-13  1.8078847405823024e-16  -1.4494083933579997e-15  5.9529269156881524e-17  6.5843212610641283e-10  5.1123709231169295e-13  -6.8111821673392983e-13  -4.8155080982031890e-15  -9.6023796034558118e-21  -8.1193073295319583e-20  -2.0256246514789941e-19  -3.1298534583372581e-22  -6.5155355285828556e-20  2.9916951792223086e-21  -1.3037771676632524e-15  2.9474826499047806e-11  4.7636253656669230e-17  -4.9046472216049076e-16  -3.0283317952793785e-11  -7.6220732791843100e-11  1.1071132595938337e-13  2.2980248303768302e-13  7.3399904681801584e-12  -3.6026087351717371e-13  -1.5087158157850300e-14  -3.9583922743668937e-17  -1.5404912806694601e-18  -1.3776900730230061e-16  -1.3095105459200584e-16  4.0450129134076818e-17  -1.8905413929030866e-18  1.7565839473278635e-06  -1.9896737624026368e-13  1.2603755427091537e-18  -6.7942765833074117e-09  1.5861755135669439e-14  -4.1486800572361517e-14  6.9385450438567319e-16  6.7459704451018012e-12  1.4639468736856983e-05  4.7969617445011224e-23  -5.3250643397176057e-23  -1.5500947103223300e-09  1.3703532808966326e-21  -1.1372229807599872e-17  6.2508462973264601e-07  -3.3475546921645953e-05  -3.0881300624509240e-06  -2.9488059540069114e-20  -1.6473075366913022e-17  9.3809305612856347e-05  -1.3273663871939097e-11  7.6635701915666470e-21  -8.9431907449408949e-06  2.3421856909684609e-18  -3.3321456771231445e-23  5.7663270139066136e-16  -9.3177172680592089e-21  2.5945884465176717e-17  7.6824637378046376e-13  2.9503125665077459e-18  6.8930727562070773e-13  -3.4045662597524369e-18  7.1359658848808246e-07  -7.2458020460235492e-13  1.6172643502994923e-05  -1.3825379079018338e-11  -3.4249851370843632e-19  6.2162021279557660e-07  1.2572904163661590e-16  1.9869674926473137e-13  6.2708468811196364e-19  2.7920310369737557e-14  1.1992747050374782e-18  1.5472731847355275e-19  -3.2722489203985983e-12  -1.1293544593265369e-13  2.1997685113173402e-19  -5.8134879370715969e-12  1.4759963973600659e-08  -1.0812624345610353e-10  1.1145151808819092e-07  3.2675201855302642e-18  -1.5784699802285628e-16  -1.1427560555607567e-13  4.5714376616619560e-14  -1.8680380150038034e-08  -1.3120986427061051e-17  9.6531280843880380e-18  -1.6632878280340685e-17  -1.5934993286860818e-16  -1.4620600202790664e-15  -1.2567344610399919e-17  2.1571651125109493e-19  1.7805117874721624e-03  -8.5393963876078847e-07  3.8106564824481229e-08  4.5776407290007577e-08  -9.5957193249640456e-10  3.1227039856648182e-08  6.4208820381674474e-09  9.1498476900391409e-13  -3.8341142235147622e-15  2.2952836632686596e-08  4.2933999305098854e-20  5.6344339730560529e-14  1.4636286314256304e-17  2.6356437702518254e-10  8.1465496205907306e-11  1.5817607618089073e-10  -1.5798846803171598e-09  2.9300911313366368e-20  1.4093550550411120e-19  -1.8016938815088755e-13  6.1594785878690815e-14  -1.7070007827892183e-15  -5.3848447116548139e-19  -1.2678752712558180e-17  1.0252973539609826e-10  -1.2346360864188065e-10  5.5977472478082811e-19  -2.1442707869220326e-19  5.0124239148890490e-17  -1.7346154877865981e-13  9.8982626568058145e-13  6.0864833984729956e-14  -1.6165236780271273e-13  2.3822996873886719e-10  -1.7347984581130278e-13  -1.3215660480979741e-09  -1.0415727224240073e-21  1.1480297818189760e-19  7.8330054357250768e-19  6.4386354641899859e-14  -3.6034629956544158e-16  -1.7020388707385387e-19  1.5417755958209009e-22  -6.5204691577863221e-22  1.5199102239508487e-20  3.7393621570905429e-12  -1.6648611161848253e-13  -4.5567427035339046e-15  -1.6193875034245681e-10  2.9992361835911968e-10  7.6079205260525003e-11  6.2859197100667279e-17  -1.7993757699344442e-11  4.8835030825946497e-16  1.7082011640220300e-09  1.2489399898147845e-20  1.3695541616823462e-17  -6.7814667152583707e-17  -1.9872700119822565e-16  7.1851758621682507e-17  -3.6867091410984493e-16  2.2020148954201710e-14  7.5432769048742492e-16  2.5312184266098629e-14  -1.5977087416018753e-16  -3.8303143028161521e-13  4.9439949761543157e-21  -3.5091154228395004e-24  -3.4125538529701731e-18  2.5276368327212685e-18  5.0972943449313018e-21  -3.3858410842577496e-18  1.0407748293348197e-20  3.5545619618823977e-19  -9.9476857275036532e-18  -8.5506487480152724e-18  -1.9364298788799417e-18  -2.3235144869653407e-18  -2.3088528901371347e-18  5.1381473009085781e-23  -6.3175926592037425e-19  3.2284526252663681e-21  -3.3301985018484973e-22  -4.2067735751993369e-19  -3.3098274393290703e-05  -3.4864168858583096e-10  -7.6144046143754876e-12  1.0734916679014002e-12  8.1017177796793697e-20  -1.7457269779393762e-19  -1.6431318137281550e-17  4.3697069462748423e-22  -5.3496486364608446e-09  1.2977759891571819e-13  -3.4991136142748206e-19  4.8315435497438609e-11  1.2892793486348283e