<?xml version="1.0"?>
<VTKFile type="UnstructuredGrid"  version="0.1"  >
<UnstructuredGrid>
<Piece  NumberOfPoints="3002" NumberOfCells="5870">
<Points>
<DataArray  type="Float64"  NumberOfComponents="3"  format="ascii">323455.6100285493 6048753.88242996 0  323455.6100285493 5954782.59950515 0  405920.1480513444 5954782.59950515 0  405920.1480513444 6048753.88242996 0  405920.1480513444 6001768.240967555 0  323455.6100285493 6001768.240967555 0  364687.8790399469 5954782.59950515 0  364687.8790399469 6048753.88242996 0  364687.8790399469 5996367.117560402 0  323455.6100285493 6025261.061698757 0  382226.6271443229 6022560.499995181 0  405920.1480513444 5978275.420236353 0  323455.6100285493 5978275.420236353 0  353897.8957397301 6022560.499995181 0  344071.7445342481 5954782.59950515 0  385304.0135456456 5954782.59950515 0  405920.1480513444 6025261.061698757 0  354379.8117870975 5975574.858532775 0  381582.8168806895 5978840.396198289 0  384950.2598624413 6001768.240967555 0  344643.0480768835 6003429.02033719 0  344071.7445342481 6048753.88242996 0  385304.0135456456 6048753.88242996 0  339717.0321562298 5986078.187627405 0  337515.036058786 5969821.016310448 0  368062.2614420265 6013076.224998265 0  368062.2614420265 6032044.774992097 0  393987.6142659165 5988729.699941677 0  405920.1480513444 6013514.651333156 0  392856.2821527076 6034589.119828064 0  393514.9611654527 5968369.338068204 0  339399.8087404341 6032061.482581838 0  323455.6100285493 6013514.651333156 0  374995.9462927963 5965504.865595459 0  354379.8117870975 6037976.901948514 0  338123.9088969378 6017031.529131207 0  367397.3120126425 5982072.559192053 0  351882.5752379905 5991998.990225234 0  376945.425450199 5991232.708824487 0  392265.0061656896 6013300.936254065 0  357029.7426706699 6006608.947964352 0  380093.6207558212 6036880.127749795 0  323455.6100285493 5966529.009870751 0  405920.1480513444 6037007.472064359 0  405920.1480513444 5966529.009870751 0  323455.6100285493 6037007.472064359 0  333763.6772813987 6048753.88242996 0  405920.1480513444 5990021.830601954 0  323455.6100285493 5990021.830601954 0  362879.3643765316 5966837.319094267 0  348367.6438548031 5965604.161682394 0  334493.1989038612 5996935.948935225 0  395068.5043068817 6023875.372615605 0  348216.0324377587 6013504.844950221 0  379305.9090074943 6011603.390019651 0  372523.5158233726 6003480.000732267 0  395435.2039568929 5999384.346358113 0  395612.080798495 5954782.59950515 0  333763.6772813987 5954782.59950515 0  395612.080798495 6048753.88242996 0  374995.9462927963 6048753.88242996 0  374995.9462927963 5954782.59950515 0  354379.8117870975 6048753.88242996 0  354379.8117870975 5954782.59950515 0  335074.5981535012 6007206.680367459 0  391925.2695590468 5978591.908877409 0  371969.1707190623 6022560.499995181 0  383872.162544519 5969415.106147043 0  358038.7139835292 5984533.09712744 0  369699.869182786 5973102.2359358 0  369841.9126663716 6041099.453006387 0  343176.7440329155 5994428.220622956 0  362933.5332293962 6024385.235173292 0  330640.1760208776 5984148.625419154 0  348684.7494355051 5983110.856817525 0  399094.9690929834 6007537.420809742 0  345447.6324516311 5974162.84917082 0  332859.7749513451 6039150.972778062 0  344517.044630671 6024057.945416138 0  332973.1214415312 6025037.914505113 0  341428.0126373461 6040493.820728126 0  385874.264691618 5992757.40885039 0  350337.3662538711 6030387.535304286 0  359887.2373602368 6016186.250094838 0  377097.8989316926 6029115.217702097 0  338917.7109078235 5961484.016839475 0  329495.5261590715 5972402.215053552 0  336644.7280634616 5978216.610794215 0  330688.6715098422 5962480.256438018 0  359899.8039476132 6031963.415584587 0  399746.255941904 6030426.523907755 0  385511.6875144855 6030368.508996127 0  387377.735783329 6040763.821024337 0  398832.192399829 5974431.100387635 0  387992.9498994246 5962432.032572681 0  405920.1480513444 5984148.625419153 0  364925.7641745284 6005782.953640081 0  361769.877068089 6041226.651684469 0  398452.9199001931 6040850.732439541 0  398946.6205243983 5962252.502309519 0  362305.5577564609 5975984.89789681 0  356822.8065216601 5998470.186307689 0  386900.7115926162 5984820.732438302 0  329528.0119279922 6032067.230024892 0  331139.6939744562 6013813.572928222 0  398457.5876798834 5982541.698799337 0  405920.1480513444 6019387.856515957 0  398685.5166750694 6017257.578706384 0  348587.9424884976 6042755.309150081 0  369841.9126663716 5960143.732550304 0  380149.979919221 5960143.732550304 0  359533.8454135222 5960172.384722514 0  377147.8814772839 5972649.581024994 0  341756.3455763521 6010124.092444684 0  355615.8176864882 5966311.193813809 0  369144.4338274571 5989807.770003954 0  375185.9047422862 5983510.422041401 0  323455.6100285493 6007641.446150355 0  391856.7960121195 6005888.565703365 0  371978.0245217044 5996361.134308098 0  405920.1480513444 5995895.035784755 0  378877.1880032702 5998073.745937059 0  359056.6617417652 5991643.489540118 0  399278.8743430426 5993436.466134224 0  386116.8775939071 6009922.097099247 0  323455.6100285493 6019387.856515957 0  388994.7833819839 6019826.789191471 0  348897.6207366391 5998116.079250046 0  345456.3301153719 6035064.814295612 0  323455.6100285493 6042880.677247159 0  334124.3013408988 5990072.953472659 0  377097.8989316926 6018059.782440464 0  323455.6100285493 5995895.035784755 0  342871.8474798963 5980154.238874755 0  373596.9793292385 6035659.183886081 0  380149.979919221 6048753.88242996 0  376327.9292813152 6042294.581731233 0  329163.3548105369 6004704.843558955 0  350303.9432136903 6007093.032074522 0  383982.6552804571 6015912.664375832 0  345515.490569988 5988567.439252969 0  379019.812877927 6004678.052169549 0  365541.9137639466 6018750.691894444 0  349225.7781606728 5954782.59950515 0  352493.3399767278 5960815.406895458 0  363683.8130458911 5986976.225872464 0  386666.791301207 5975084.583584332 0  368937.6553346639 5966171.092344863 0  400003.9882214358 5968352.273777306 0  328776.0063842635 5992958.433193355 0  339958.4428758043 5999572.344589042 0  354577.7732363954 6012555.454074449 0  328609.6436549741 6048753.88242996 0  382053.0280278458 5988228.496807038 0  330708.6817934912 5978212.973348036 0  372084.7734679543 5978495.086505585 0  358568.2738174705 5971419.415228934 0  328931.2672829705 5998832.905089681 0  323455.6100285493 6031134.266881558 0  405920.1480513444 5972402.215053552 0  405920.1480513444 6031134.266881558 0  323455.6100285493 5972402.215053552 0  405920.1480513444 5960655.804687951 0  323455.6100285493 5960655.804687951 0  405920.1480513444 6007641.446150355 0  323455.6100285493 5984148.625419153 0  405920.1480513444 6042880.677247159 0  346648.7613474604 5960023.05127712 0  342415.3891593561 5966358.988213831 0  350507.6510228226 5971111.740321856 0  391773.9667214506 5994456.117700323 0  338875.8905424621 6026088.827345025 0  361429.1735454847 6010511.262533597 0  389395.7028803263 6025805.543023561 0  392895.6464692951 6043315.288173481 0  332846.8296575367 6019296.633131165 0  373337.4404588729 6009693.515402478 0  336544.3064612215 6043648.151399015 0  348610.2411382072 6019567.839754772 0  381943.4597763228 6042183.394750732 0  355630.0631288611 6028071.82801846 0  363941.5238882306 6035967.852698964 0  328179.67203552 6022271.326978176 0  401066.2857736665 5998807.415073814 0  344387.1099621175 6029612.545574771 0  393435.2235156003 5960233.556458537 0  400735.9970493424 6022675.638064924 0  393708.5772019727 6029179.837160029 0  400609.0696943338 5987857.851798974 0  361753.6614662939 6001152.171757337 0  400766.1144249197 6048753.88242996 0  353363.0524357285 6002630.165620538 0  343248.328463803 6018790.640008039 0  356419.8105951758 6043365.392189237 0  390234.385899412 6000759.497967276 0  368336.1168551637 6000220.532318851 0  328609.6436549741 5954782.59950515 0  387520.8298169724 6035372.992507171 0  400588.0280660195 6035823.299583429 0  329021.6598427091 6043194.252697862 0  393371.710206733 5983576.325812268 0  393638.9721728675 5973623.513063556 0  371727.9212466564 6017113.044457142 0  364687.2762977295 5959941.212693035 0  374995.9462927962 5960346.83186599 0  369841.9126663716 5954782.59950515 0  400766.1144249197 5954782.59950515 0  338917.7109078234 5954782.59950515 0  369841.9126663716 6048753.88242996 0  359533.8454135222 5954782.59950515 0  390458.0471720704 6048753.88242996 0  338917.7109078234 6048753.88242996 0  390458.0471720704 5954782.59950515 0  359533.8454135222 6048753.88242996 0  380149.979919221 5954782.59950515 0  349225.7781606728 6048753.88242996 0  339867.4956514095 6005339.817053361 0  333737.9460226952 6002130.523287664 0  336955.8140048417 6012008.440073739 0  377097.8989316926 6023232.32559834 0  371748.9790486701 6028016.629988787 0  338146.5171983215 5993298.164761053 0  355016.8390227688 6017610.913088997 0  393953.1528190996 6018968.416019509 0  335185.8133477239 5965142.63403323 0  328616.6041642396 5967263.80307608 0  380314.9487662361 5965460.362415641 0  354622.8993466098 6032976.142863722 0  328521.4725131759 6027215.026914048 0  334465.0783479523 6034070.534389696 0  328123.6212682287 6009699.206425843 0  381889.5169855529 5973936.741901617 0  359122.3484437474 6036790.002992895 0  386341.6533148278 5979963.279841923 0  400798.2159679119 6012477.871311778 0  388538.3765260249 5967461.292146791 0  340833.8784183678 5975728.708105717 0  355307.6239213505 5988552.151815021 0  362181.4274823388 5981261.937800813 0  353784.0322742948 5981044.538811012 0  358045.1698423899 5978741.391518688 0  328423.7350325213 6036912.015930048 0  366897.6876966125 6027277.723668203 0  347355.1745641421 5978532.307510624 0  376820.5060332146 5979033.270735624 0  349378.1778589479 6024378.632814493 0  327189.2282939323 6016451.253924556 0  338433.8773236172 6036753.902881841 0  350141.9760340559 5987605.90026687 0  363794.7083927878 5991713.491814731 0  350325.1285660182 6035273.515460094 0  382355.9358007369 5983507.499638396 0  327107.0747437811 59811
[...]
<PointData  Scalars="f_47234-1"> 
<DataArray  type="Float64"  Name="f_47234-1"  format="ascii">-1.5455738473586723e-19  2.3964145732710391e-17  3.4592017534895699e-12  -1.3492243932663940e-15  -8.7627625697039787e-06  -2.0885307352100269e-11  1.0059874811584422e-10  2.8772972062603358e-13  6.2642243160386177e-03  1.5309105324811671e-13  3.2317728966287259e-04  3.0024078909198645e-07  -7.6119870046837546e-13  -3.8518110595017795e-06  1.4898896595218768e-12  -2.6933727364842954e-11  3.1130625755636702e-09  -1.5523827884065352e-08  -8.0328167786703701e-05  3.1628601334702631e+00  3.1889425026036609e-05  -6.0266922504656367e-15  3.2692594667176690e-13  -9.9941688370001714e-10  1.6094787506607596e-12  6.1496338989679600e-02  1.8815214056806080e-07  -3.4593779770866420e-04  -6.7248214995968024e-08  -1.5073119532244237e-10  3.6163705949848379e-07  1.1597527003698741e-10  2.4693288327597814e-11  -8.3010726588238230e-08  9.3175833463758076e-10  -4.7880917516945846e-10  -6.3787153054412329e-05  7.8911806279783248e-06  -1.2774298310760244e-02  9.7988711920061642e-04  5.8703408908047407e-03  2.6382537620054966e-10  -1.2109971743148941e-14  2.0885778429157853e-11  5.1455814910798856e-11  -7.1706556249033393e-16  -7.9259694717597359e-17  2.9114013949392138e-06  4.7126811374847718e-12  2.4297842735954959e-08  -1.5224102193409807e-11  1.8408634477625377e-08  4.2256932824217186e-08  -3.2408437390114713e-06  1.7120972932249963e+00  5.3232509549453590e+00  4.3721637871147878e-01  -1.8517295760763512e-11  2.0945436207765537e-16  -2.8666763719935672e-15  2.1855828844507414e-12  -1.7868503818046836e-11  6.5434120278322542e-14  1.7622193681030635e-11  -2.4724203865924827e-09  -2.9779656250075211e-06  -4.3492209814651326e-05  -1.6534113044223404e-06  4.5853497971493853e-06  1.5199724903382287e-05  7.7752760584362215e-11  3.0153145541977567e-07  -1.6388623352886988e-05  -2.1259812300140047e-11  5.6343327523430633e-08  6.7218128469266039e-04  1.9848549488544245e-09  4.3600012278033518e-15  1.3772093896881760e-07  -4.4723669545539418e-11  4.5160988349700404e-13  1.8248036249873795e-01  2.7223997579724598e-08  2.5311869109666583e-04  4.7437409750934192e-08  4.2042211067507765e-13  -4.8879778234719160e-13  -2.2418022875444576e-11  -1.3256917853428188e-15  5.5318374016451206e-08  3.9307934221335841e-10  -5.8131143924313774e-08  1.2462649911234505e-10  9.8503379653895148e-07  -9.7728223983793138e-09  3.7537869992446336e-07  3.3202872668784850e-01  1.3726065186919730e-10  2.3081141970649891e-12  1.9365622194831229e-10  -5.6872886316228224e-07  -1.1552985187483253e-04  3.0148506502142836e-02  1.1064221423132077e-12  -2.1930840217148206e-11  1.5866499625658440e-06  4.0485545739205971e-08  6.1250426924093643e-06  -1.7483688456801804e-13  5.2672308547135085e-09  -9.1586026155696981e-10  4.6613657337842413e-10  -2.7129254296473544e-06  1.2624408155205965e-06  6.4915564334702691e-09  1.0396473489887785e-03  7.8611321367140861e-03  -5.0866406017559879e-12  3.1465354376451121e-01  -5.4675027303692225e-02  2.4144050180182059e-05  4.4458369027082467e+00  9.9172342955405131e-04  3.0161574736841069e-03  2.5841292270965355e-01  1.6442500910735229e-12  1.2575907661437023e-06  -4.1819227717294811e-06  4.4441540158718060e-11  -1.5529936932261008e-17  -9.1972227763773309e-10  3.7636551840790532e-02  9.6551133265091308e-11  -1.3100609829414057e-10  1.8844017820852168e-09  5.9537974308799821e-13  2.4968434262089278e-10  1.3442179967716916e-09  -5.5119505789775993e-05  3.6956694570943068e-03  -8.8359227116015066e-09  4.0074752451271962e+00  1.0812324282056752e-03  -9.3053505292107238e-13  -5.1832828126074266e-12  -3.2480390053769181e-04  1.9411464664207491e-04  8.9592523634666584e-08  3.0249035968766227e-09  4.6574427176178033e-10  5.6111457539168503e-07  3.6346235923446731e-04  -4.0276002146712452e-18  1.5478406654335392e-01  -8.8450834997881611e-13  -2.5848135596623621e-05  2.0690498291425231e-08  -2.0831048828861402e-10  -1.1906159818970497e-16  1.3175141269916534e-08  9.6656247535399415e-11  -2.6488054329128840e-14  2.0280262088066821e-10  -2.9200108472391852e-16  1.1091699864607160e-05  -5.2775306081221110e-12  6.9465579278747770e-13  -1.3360084032869477e-12  3.9436678763359418e-11  -3.5447893191835167e-10  2.7265291104485356e-01  -5.6191628501654367e-10  1.4941784035489153e-02  9.2479964178085690e-07  1.3670049156677214e-12  -9.2714518593060743e-11  3.4536944571906072e+00  -1.7889160094411777e-16  3.2681180936133971e-06  1.1216812021394561e-10  -3.2343173546848996e-08  3.1589441140374059e-09  6.1908890740436388e-13  5.0851105257023247e-04  3.2045412095647665e-09  4.4556257963117308e-09  1.1758589367347870e-08  1.2577917573082365e-08  -7.2234824346704215e-06  4.5183068769020819e-02  5.7533371768914483e-16  1.2727064543410686e-03  1.3908513658400073e-07  7.0356246183943975e-12  1.9047578569727377e+00  4.3529386486149269e-01  2.3923490182615699e-16  2.2512319383246737e-09  1.0422587466896200e-11  -9.7288122501815297e-18  1.1044611188595144e-04  7.6654493572469471e-06  -2.9281954552600204e-03  3.2016545061911009e-10  -1.2749310343028152e-09  5.6886759902100286e-11  -8.5154347376355321e-13  4.1018574506050115e-14  1.3137018973372961e-12  -2.1190161260345018e-12  2.6085791885553088e-13  -1.4619840620383991e-16  3.3189344044157015e-10  -1.4563486513757113e-14  1.3270514286240386e-11  2.4525890093449175e-14  2.1200986185334339e-06  9.4650406669011749e-08  2.0980787966675791e-08  3.8609607748044415e-04  -8.7162861280167446e-08  -2.3604245569790593e-08  1.9599673103197027e-04  9.2598182803492199e-06  7.4522877925908264e-13  -2.9963367844978222e-14  6.2456810846192095e-09  1.5185654831222657e-08  -6.0410574332078700e-14  2.1247124848833490e-12  -1.0537366906286141e-10  -1.9970809437472012e-05  4.2575084529434466e-09  2.3403528949834914e-03  -3.1395562228352598e-06  2.5440248828653593e-06  -4.7468771829826834e-11  1.6977768872721147e-05  1.3809005314471737e-05  1.0710346426910238e-06  4.0087248862987978e-06  1.6207959470864138e-14  5.9716483816718722e-06  1.5428470704891705e-09  9.7863666202188649e-04  9.5771024715779606e-07  3.6291537674068422e-12  1.1150338999086900e-12  7.6129592356302105e-07  5.7246211531461412e-04  6.7442622358365467e-10  1.3525323958616843e-02  -1.7773850962041103e-12  -2.7064144919791921e-10  2.7355670305002551e-10  1.7444674911380884e+00  -2.9027768447665328e-07  1.3384566603965146e-07  5.4378514851062621e-05  2.0675087704964436e-11  4.9116918261790142e-13  2.6926217549176639e-09  1.6098883012125800e-14  -1.8621834625798492e-12  -2.6742501697410276e-05  1.4884932277783514e+00  -3.8340782522215034e-12  3.2148149664427530e+00  -8.0372164964729691e-10  7.2190085675960258e-06  6.7263972899706953e-02  9.9102855982781801e-01  -9.2014930607076475e-07  4.1777848962545533e-10  2.9837302148121153e-06  6.2125127705848961e-04  -8.9068096920254410e-04  4.7741878099369847e-02  1.8506686052602579e+00  -1.9165971545611431e-09  1.8825556317761179e-07  -7.9848758887875306e-09  2.1550654650980095e-04  -1.7143122797035398e-03  1.2994778396182613e-03  2.9223008416008132e-12  7.5664256142133485e-04  -1.9510560157443548e-14  1.2032955694853387e-10  -6.0135089919192194e-07  7.5817369625547012e-08  2.9235467479186692e-05  4.5124864526325611e-12  9.0392087021672113e-06  -8.1089413525011874e-08  3.0449484060370274e-03  3.0280512971614886e-08  4.5265831066377141e-14  -5.3128792633450129e-13  1.2463451141615347e+00  -3.3721883165056249e-11  -1.3682422286641461e-10  -1.5449096283963994e-13  -6.9913939490784391e-09  2.7458968165855017e-14  1.7051216671157119e-13  8.8410631751231274e-17  3.6275387899211822e+00  1.6731941780351810e-12  6.8015574594985917e-02  4.2917145938086443e-12  1.9099803460700017e-15  3.2458295314171581e-10  1.2116373144793110e-07  5.8082018833202947e-09  -9.3850993347648732e-14  2.3505372544082034e-06  1.4965177212415480e-08  2.1507848865008691e-11  -1.1760987319199705e-11  2.4538647400654637e-07  -9.4108403020399745e-06  1.2162900475955554e-03  2.8775476949493540e-03  -4.6311694675399311e-12  8.6489663817790906e-07  -5.8098132477155474e-10  -8.3433842201432164e-17  1.7097189812727495e-13  -8.2841145651977894e-10  9.5504648782864604e-08  2.1570883365901796e-07  1.1635662149260825e-08  8.0440452091403500e-10  4.4050206640103285e-10  4.3639779367009807e-11  4.9181140225633193e+00  9.3382653482860220e-06  1.4233045269001683e-08  -1.4599622126656020e-06  2.0770982325062337e-01  4.5875586560244798e-02  4.8292700000694844e-03  2.7782436530966384e-04  -1.3150441913249126e-12  -2.8226764637248012e-04  -1.0101636200559226e-06  -5.0635751681612774e-09  1.6399591448064529e-07  -6.2460030446792446e-07  -1.6570716724534336e-19  1.9998840061974879e-16  3.9564133761381179e-05  -2.3455028841068095e-10  6.7452476359811164e-09  1.5908343140751886e-04  1.3430077800830152e-10  7.4062780160647442e-06  1.7361842120721798e-10  5.3250638418821845e-06  6.3204116544539427e-05  -7.9743119219753380e-13  -6.1890949106501047e-16  4.9434509233389532e+00  -2.7123247661637669e-03  1.2844051595729378e-08  -3.8871592231688103e-08  -2.3793806204595414e-09  -6.7540511340714558e-17  1.2913696281436072e-13  2.6434401733034386e-11  4.5356417135541323e+00  1.3752102081673057e-05  1.3838043966158703e-10  4.1231127691119588e-10  2.5555173680982021e-09  5.9239859846418007e-09  1.3757833729119182e-09  -3.6580228736153728e-10  6.5615813012199495e-03  -7.9531761281792870e-04  8.6378048743330372e-09  -4.1686755525964261e-12  4.7552333927630671e-08  2.1231676112830381e-08  7.2200759049112454e-14  -1.4610852326235918e-08  -3.1826351358333336e-04  4.6134978152401201e-04  2.9427439638420195e-06  6.3010063417390812e-10  -2.8697236627886074e-11  1.7836806319895047e-14  -1.3559970055081506e-10  5.0861380817482260e-01  -9.7739839271373096e-09  -9.2444090455566532e-10  1.2461258851929969e-06  -2.3409890671358793e-09  3.9708201074592972e-08  1.3178672572481790e-06  -4.1049432547085066e-08  6.2512437729254036e-12  1.2873956001868446e-09  3.1554663549015810e-01  -7.7047810317538881e-04  -5.3927127712714409e-06  -1.2403889517098915e-05  1.2503432503674211e-05  1.6800964464231242e-05  9.2154544983526871e-04  2.4379056876916433e-09  1.7551352224690170e-10  4.1703901386564487e-03  -8.8958893261435008e-15  1.4564481432473164e-01  -8.8196198920594382e-02  2.3874160820780097e-13  -2.3635319643378387e-12  -1.1232682114784728e-04  8.6926179562561082e-08  8.3872524073751401e-03  4.4635410742142271e-11  -1.0398535669883352e-12  7.5824888231626747e-11  1.8282980162779805e-11  -9.6714118630738446e-12  4.5574927709238241e-05  1.4850095488826776e-03  -4.3433399126464091e-08  -4.3577889734799822e-07  2.7784327730126452e-11  1.2743449158321247e+00  7.6402558213634888e-03  4.5214596452249723e-04  1.0337878732255766e-06  3.7675189026441671e-09  -1.8515401800747314e-07  -3.9532119535207193e-05  -1.2184929133240566e-05  3.2628240238761128e+00  3.5940379060350272e-05  4.6947770694672225e-07  -1.7787486314646500e-01  -5.9376145250563026e-14  1.9956612508799321e-09  3.2198620334454799e-07  -4.2494559497992946e-07  -1.8410411784998604e-10  7.4680513209403478e-09  -2.5695651437939336e-12  7.7600286601183899e-02  -4.0733420842301878e-04  1.5407112626760755e-09  1.9101038267454091e-03  8.1606749202566288e-08  6.1951807824950035e-11  -3.4200539281103801e-06  5.1674860983688233e-08  3.4159393243812113e-02  -1.1661712542678180e-11  3.7274959822435560e-11  2.0680062643293157e-09  -1.7101026842930238e-08  -9.2381893895158978e-14  2.4199371181335644e-09  3.1163856286139716e-12  1.4949265753838175e-05  -1.9642031942073079e-08  7.8875878357124163e-01  1.4363317642881476e-09  -1.2724534806595302e-07  -1.7652918616559579e-06  2.0947570575917966e-13  3.0259609814985711e-02  -1.2221961651734553e-11  -1.7935473182241398e-08  5.6161455465045313e-10  -9.2529650922556995e-08  -1.7440297295370696e-06  3.1392800958021416e-12  -5.4230544153862929e-06  5.5384588396260339e+00  1.2088227585490959e-08  1.3748784951391371e-07  -1.7886535501945618e-10  2.4611278227444447e-10  -3.4445452774976449e-11  3.4680180993023272e-08  1.8672116260441702e+00  -3.9521027909361611e-01  9.2628568072654830e-07  -1.3337419676940972e-09  3.4693177753027236e-16  1.1465424088185674e-04  -6.5152148736519650e-07  -1.7307166088176930e-04  -5.2663519310208063e-11  -2.0610296557527572e-10  -4.0099469440579548e-11  1.8940855572002707e-01  2.4639004418563793e-14  6.7331975783905287e-14  1.0448342567177987e-15  -1.7077732368822315e-12  1.0681715518095517e-02  3.2683229276815959e-04  -7.8386247492846155e-04  -1.9665067233316057e-11  1.0691473824924738e-06  -4.2184671816432855e-10  2.9427429894630244e-06  5.7198971637296121e-11  -1.6534939151071734e-03  -1.2201406717898113e-04  6.4296825028534881e-06  3.1810347143062773e-08  -8.1590829051419718e-09  3.1708649040851718e-07  3.3233413778405358e+00  9.1719960744957041e-01  2.7145409058213317e+00  -9.8497415472597917e-06  1.5235006463482406e-11  -1.6554765125079177e-03  1.3292247086993536e-13  6.0927520262108507e-11  2.3205133631424541e-10  1.6411103188542565e-11  1.7075914134547328e-11  3.3474210453140073e-09  1.5526694889532387e-14  6.5706709999894424e-04  1.1661934565832095e-10  -2.6805207240392007e-14  1.0645698928900169e-11  5.2840281528375343e-10  3.2026971269629563e-09  -7.4353609986218985e-06  9.3990737865148287e-18  -9.4628944711908233e-17  2.5460352398535257e-10  8.7977501616730176e-20  -7.2882362508615829e-05  -5.2320873248469107e-05  8.5082667854744333e-04  1.0341203162475059e-01  5.4295781572320517e-09  -7.0300539419962746e-05  -2.5045091066826756e-14  -1.7426474550514213e-07  -4.1962079734639259e-10  -2.2928940152952039e-08  3.2051674988982775e-06  1.5446862111438837e-07  -1.4517464643783428e-04  8.9096279143090711e-14  4.5501214297512880e-14  -2.3371679703463177e-12  1.9305597205525375e-12  -3.3529734101444784e-12  3.5584441768780834e-09  5.4421658468642128e-04  1.4028881637364946e-06  -4.7673358943314187e-13  -1.3832297242983775e-06  -2.1871675491049839e-07  8.0887621701205033e-06  7.0500579939514682e-02  4.1936730935252686e-05  5.6939099501779699e-13  1.6790803068904611e-10  -2.0220130498038971e-11  7.3652867559731801e-10  -3.5783529081628549e-10  -1.2577482888837630e-11  -9.0149116253958814e-13  1.2458568267843126e-09  1.0370313352857712e-07  1.3099429852789002e-08  -3.6681442493484517e-12  1.8795662682371261e-01  5.0976645283143842e+00  2.3983543321714056e-07  2.1495078525897874e-14  7.8465703053738983e-12  3.6030182766397090e-12  2.5320799007432091e-11  9.3586806692882991e-16  -4.8349374780437069e-11  -1.9392746592506468e-16  -2.3125873812612366e-03  -1.2179301519031580e-02  -2.0141102885514974e-10  3.0929694551012937e-09  4.3040172708683736e-08  1.4191661297896400e-11  -8.8620658121194746e-14  3.7708721640739860e-09  -6.4985224204393063e-05  -4.7192686377782449e-06  4.7166348554980277e-05  1.8620086882539352e-05  8.7530949680617010e-01  3.9564977359802113e-02  3.4507495773568674e-02  7.6118939991381720e-08  8.7647203955725022e-09  -9.6823483924568524e-10  7.5778349060104536e-09  -2.6605241519764972e-12  -3.7608882370931874e-12  6.9255889821558977e-08  3.4852201778474901e-13  7.9720921891210513e-13  4.0766855192586475e-07  7.6112313522585191e-10  5.2607926385936647e-10  2.2308807946345641e-15  2.4640508244999171e-12  -2.3622660713384340e-08  5.5385159919431815e-12  2.1047522980366780e-05  9.9486393574847197e-10  2.2232884985363828e-08  -8.3001221745661806e-11  1.6609862981946049e-06  -1.0340895032190024e-08  4.3397170528307392e-07  4.1964357805509984e-11  -5.8339546746768812e-13  -2.8962340505692705e-13  3.9839520747329230e-12  1.9853136824711581e-16  -1.7109972869056900e-14  -6.1238521053376296e-16  -1.6957687088344889e-08  -1.0785241157556282e-07  -4.3091141038323887e-10  5.5157819209192821e-08  1.1997764861487087e-05  1.3213963621787234e-06  -1.2184470983981248e-08  2.0618398863485465e-08  3.2607724291961977e-07  -2.4785241812540611e-07  2.9173822666375871e-08  -1.1199641607069238e-11  -1.5169137693319480e-13  3.3428031512347918e-11  8.4749702908589721e-10  4.2519345290716196e-10  -5.9978159921815039e-12  -8.5533579457039311e-03  2.5295029778592709e-05  1.3714519904811463e-10  2.6766175655749795e-04  -1.9864355395105163e-09  -5.5646156540552567e-09  -3.2826808508742324e-11  2.3774802399924039e-04  7.8192192457069831e-03  1.0160724062571016e-17  4.3325635826246862e-18  2.7919308476741739e-01  -5.8141468286935686e-16  3.2905602972170252e-10  5.6276377707909081e-03  -1.8932552859936815e-02  1.5856849646135674e-03  -2.5219329884754350e-12  -1.3757553440143099e-11  -1.9209315264869953e-02  2.8051524083025251e-02  1.0767412139727199e-13  5.3946770895898455e+00  3.3486398762704844e-11  1.8332273711598307e-17  1.2177214110317553e-09  -2.3891867502684626e-13  6.8881461044475153e-10  -1.3028345871066644e-06  1.8049074881134754e-12  -1.6053622913625262e-07  2.7698979961847759e-11  3.0655926820876922e+00  6.5648049957473734e-07  -3.6420682529242059e-03  5.6990383296697140e-07  1.0466547325286629e-10  1.6383234092656911e+00  2.2288485310398377e-09  1.1464586484883413e-06  3.6650050486753186e-12  2.3268979622786841e-06  4.5945099375038341e-11  1.9957928353439012e-12  1.0542111608148157e-03  -2.3135110034508152e-07  5.1197517826413838e-11  -7.7926938140168928e-04  1.4939163292189792e-01  9.4048842868441201e-03  2.6927581434044026e+00  3.3902079404940846e-11  8.9990521642344128e-09  -1.5965988830837495e-07  2.8812381018249872e-07  -1.0534495544845874e-04  9.8052547019029105e-10  -2.0609158105363546e-10  2.0164163292039681e-10  9.1736368610465597e-10  4.8733851586144437e-08  -4.5475347316510322e-12  -1.4222903064510594e-12  5.0295019370156147e-01  3.7420672026639372e-03  8.3829719019593552e-01  9.2579934930302070e-06  1.2104553381208891e+00  2.2569189450330200e+00  1.1466552111154744e+00  5.6760175041189325e-07  2.3194911157089121e-08  6.4130374647464487e-03  3.0541906382087632e-12  6.3809704824503834e-07  9.6856880679808784e-10  -3.6309916913336027e-06  2.4504392678871485e-06  2.4326640932109609e-05  -9.7188352060373785e-04  -9.6974917212378326e-13  -1.2776584758377249e-12  6.6150443928541112e-05  1.0079336444527353e-06  9.3615429676151782e-08  3.4882597532731042e-12  1.0294100581131064e-09  9.8286896408477910e-05  3.9326876726836562e-06  -1.9215169974901882e-12  -1.0098958695120352e-14  3.7351459446589727e-10  -2.2788637695543124e-07  3.9007327154690775e-06  -1.2729088567710395e-07  2.1205598555780913e-06  1.1067180465988207e-06  3.9494001110482425e-07  -6.3731357144977685e-05  2.7960624066429179e-16  -1.9878025640909553e-13  -7.7398973840480459e-13  2.6559731235214039e-06  4.2662884123287795e-08  7.4701750456182503e-15  -2.0294821278930342e-15  3.1745708059898695e-14  7.4374013347150490e-13  1.5250298362885155e-05  5.2488001310508594e-07  1.4592100913445908e-06  2.9011965855291742e-05  6.4229001373973212e-04  9.1907100614478716e-05  4.0364427834942416e-10  1.4216413741286749e-05  4.9457409559777398e-10  3.3650758183727029e-03  -3.6857705161890530e-14  9.0160988301455496e-11  -4.2393895332144806e-11  -2.5640582768912970e-10  1.2732718689537052e-08  2.2770683873535034e-08  1.4587590047119433e-07  -2.0586675243561618e-09  -2.1546352637959146e-08  -3.0461583689385037e-09  4.3643306190246956e-08  -1.0274494432823390e-14  5.5322843465881418e-19  1.8406994558031285e-10  9.9451192364114998e-11  -1.8335127724192190e-15  9.5778844462935682e-13  2.9154759333438563e-14  1.8993344045191598e-12  -2.5350323546252855e-11  5.9861657445731437e-11  -9.0994498288710797e-11  -8.7530538275640456e-14  -4.8804459206525891e-12  -5.1844922191284079e-16  -2.9838052346668174e-15  7.4314788424271428e-16  -2.6947636527698363e-15  8.3609828602585960e-13  4.5357947024731198e+00  1.8203800657164515e-04  1.5428138844814916e-03  2.1767999978922242e-06  9.4356175281422058e-13  1.0761723890222607e-12  2.0906075970996155e-10  1.1423913295735711e-16  2.5948690086128978e-03  1.0077951682623244e-07  -9.5035885746734086e-14  7.3963538473489666e-03  -1.6454929791074210e-14  5.2424374220202404e-05  1.0018928808762588e-09  1.1072870967023635e-02  -1.1155827355827118e-11  3.11868135680