<?xml version="1.0"?>
<VTKFile type="UnstructuredGrid"  version="0.1"  >
<UnstructuredGrid>
<Piece  NumberOfPoints="3002" NumberOfCells="5870">
<Points>
<DataArray  type="Float64"  NumberOfComponents="3"  format="ascii">323455.6100285493 6048753.88242996 0  323455.6100285493 5954782.59950515 0  405920.1480513444 5954782.59950515 0  405920.1480513444 6048753.88242996 0  405920.1480513444 6001768.240967555 0  323455.6100285493 6001768.240967555 0  364687.8790399469 5954782.59950515 0  364687.8790399469 6048753.88242996 0  364687.8790399469 5996367.117560402 0  323455.6100285493 6025261.061698757 0  382226.6271443229 6022560.499995181 0  405920.1480513444 5978275.420236353 0  323455.6100285493 5978275.420236353 0  353897.8957397301 6022560.499995181 0  344071.7445342481 5954782.59950515 0  385304.0135456456 5954782.59950515 0  405920.1480513444 6025261.061698757 0  354379.8117870975 5975574.858532775 0  381582.8168806895 5978840.396198289 0  384950.2598624413 6001768.240967555 0  344643.0480768835 6003429.02033719 0  344071.7445342481 6048753.88242996 0  385304.0135456456 6048753.88242996 0  339717.0321562298 5986078.187627405 0  337515.036058786 5969821.016310448 0  368062.2614420265 6013076.224998265 0  368062.2614420265 6032044.774992097 0  393987.6142659165 5988729.699941677 0  405920.1480513444 6013514.651333156 0  392856.2821527076 6034589.119828064 0  393514.9611654527 5968369.338068204 0  339399.8087404341 6032061.482581838 0  323455.6100285493 6013514.651333156 0  374995.9462927963 5965504.865595459 0  354379.8117870975 6037976.901948514 0  338123.9088969378 6017031.529131207 0  367397.3120126425 5982072.559192053 0  351882.5752379905 5991998.990225234 0  376945.425450199 5991232.708824487 0  392265.0061656896 6013300.936254065 0  357029.7426706699 6006608.947964352 0  380093.6207558212 6036880.127749795 0  323455.6100285493 5966529.009870751 0  405920.1480513444 6037007.472064359 0  405920.1480513444 5966529.009870751 0  323455.6100285493 6037007.472064359 0  333763.6772813987 6048753.88242996 0  405920.1480513444 5990021.830601954 0  323455.6100285493 5990021.830601954 0  362879.3643765316 5966837.319094267 0  348367.6438548031 5965604.161682394 0  334493.1989038612 5996935.948935225 0  395068.5043068817 6023875.372615605 0  348216.0324377587 6013504.844950221 0  379305.9090074943 6011603.390019651 0  372523.5158233726 6003480.000732267 0  395435.2039568929 5999384.346358113 0  395612.080798495 5954782.59950515 0  333763.6772813987 5954782.59950515 0  395612.080798495 6048753.88242996 0  374995.9462927963 6048753.88242996 0  374995.9462927963 5954782.59950515 0  354379.8117870975 6048753.88242996 0  354379.8117870975 5954782.59950515 0  335074.5981535012 6007206.680367459 0  391925.2695590468 5978591.908877409 0  371969.1707190623 6022560.499995181 0  383872.162544519 5969415.106147043 0  358038.7139835292 5984533.09712744 0  369699.869182786 5973102.2359358 0  369841.9126663716 6041099.453006387 0  343176.7440329155 5994428.220622956 0  362933.5332293962 6024385.235173292 0  330640.1760208776 5984148.625419154 0  348684.7494355051 5983110.856817525 0  399094.9690929834 6007537.420809742 0  345447.6324516311 5974162.84917082 0  332859.7749513451 6039150.972778062 0  344517.044630671 6024057.945416138 0  332973.1214415312 6025037.914505113 0  341428.0126373461 6040493.820728126 0  385874.264691618 5992757.40885039 0  350337.3662538711 6030387.535304286 0  359887.2373602368 6016186.250094838 0  377097.8989316926 6029115.217702097 0  338917.7109078235 5961484.016839475 0  329495.5261590715 5972402.215053552 0  336644.7280634616 5978216.610794215 0  330688.6715098422 5962480.256438018 0  359899.8039476132 6031963.415584587 0  399746.255941904 6030426.523907755 0  385511.6875144855 6030368.508996127 0  387377.735783329 6040763.821024337 0  398832.192399829 5974431.100387635 0  387992.9498994246 5962432.032572681 0  405920.1480513444 5984148.625419153 0  364925.7641745284 6005782.953640081 0  361769.877068089 6041226.651684469 0  398452.9199001931 6040850.732439541 0  398946.6205243983 5962252.502309519 0  362305.5577564609 5975984.89789681 0  356822.8065216601 5998470.186307689 0  386900.7115926162 5984820.732438302 0  329528.0119279922 6032067.230024892 0  331139.6939744562 6013813.572928222 0  398457.5876798834 5982541.698799337 0  405920.1480513444 6019387.856515957 0  398685.5166750694 6017257.578706384 0  348587.9424884976 6042755.309150081 0  369841.9126663716 5960143.732550304 0  380149.979919221 5960143.732550304 0  359533.8454135222 5960172.384722514 0  377147.8814772839 5972649.581024994 0  341756.3455763521 6010124.092444684 0  355615.8176864882 5966311.193813809 0  369144.4338274571 5989807.770003954 0  375185.9047422862 5983510.422041401 0  323455.6100285493 6007641.446150355 0  391856.7960121195 6005888.565703365 0  371978.0245217044 5996361.134308098 0  405920.1480513444 5995895.035784755 0  378877.1880032702 5998073.745937059 0  359056.6617417652 5991643.489540118 0  399278.8743430426 5993436.466134224 0  386116.8775939071 6009922.097099247 0  323455.6100285493 6019387.856515957 0  388994.7833819839 6019826.789191471 0  348897.6207366391 5998116.079250046 0  345456.3301153719 6035064.814295612 0  323455.6100285493 6042880.677247159 0  334124.3013408988 5990072.953472659 0  377097.8989316926 6018059.782440464 0  323455.6100285493 5995895.035784755 0  342871.8474798963 5980154.238874755 0  373596.9793292385 6035659.183886081 0  380149.979919221 6048753.88242996 0  376327.9292813152 6042294.581731233 0  329163.3548105369 6004704.843558955 0  350303.9432136903 6007093.032074522 0  383982.6552804571 6015912.664375832 0  345515.490569988 5988567.439252969 0  379019.812877927 6004678.052169549 0  365541.9137639466 6018750.691894444 0  349225.7781606728 5954782.59950515 0  352493.3399767278 5960815.406895458 0  363683.8130458911 5986976.225872464 0  386666.791301207 5975084.583584332 0  368937.6553346639 5966171.092344863 0  400003.9882214358 5968352.273777306 0  328776.0063842635 5992958.433193355 0  339958.4428758043 5999572.344589042 0  354577.7732363954 6012555.454074449 0  328609.6436549741 6048753.88242996 0  382053.0280278458 5988228.496807038 0  330708.6817934912 5978212.973348036 0  372084.7734679543 5978495.086505585 0  358568.2738174705 5971419.415228934 0  328931.2672829705 5998832.905089681 0  323455.6100285493 6031134.266881558 0  405920.1480513444 5972402.215053552 0  405920.1480513444 6031134.266881558 0  323455.6100285493 5972402.215053552 0  405920.1480513444 5960655.804687951 0  323455.6100285493 5960655.804687951 0  405920.1480513444 6007641.446150355 0  323455.6100285493 5984148.625419153 0  405920.1480513444 6042880.677247159 0  346648.7613474604 5960023.05127712 0  342415.3891593561 5966358.988213831 0  350507.6510228226 5971111.740321856 0  391773.9667214506 5994456.117700323 0  338875.8905424621 6026088.827345025 0  361429.1735454847 6010511.262533597 0  389395.7028803263 6025805.543023561 0  392895.6464692951 6043315.288173481 0  332846.8296575367 6019296.633131165 0  373337.4404588729 6009693.515402478 0  336544.3064612215 6043648.151399015 0  348610.2411382072 6019567.839754772 0  381943.4597763228 6042183.394750732 0  355630.0631288611 6028071.82801846 0  363941.5238882306 6035967.852698964 0  328179.67203552 6022271.326978176 0  401066.2857736665 5998807.415073814 0  344387.1099621175 6029612.545574771 0  393435.2235156003 5960233.556458537 0  400735.9970493424 6022675.638064924 0  393708.5772019727 6029179.837160029 0  400609.0696943338 5987857.851798974 0  361753.6614662939 6001152.171757337 0  400766.1144249197 6048753.88242996 0  353363.0524357285 6002630.165620538 0  343248.328463803 6018790.640008039 0  356419.8105951758 6043365.392189237 0  390234.385899412 6000759.497967276 0  368336.1168551637 6000220.532318851 0  328609.6436549741 5954782.59950515 0  387520.8298169724 6035372.992507171 0  400588.0280660195 6035823.299583429 0  329021.6598427091 6043194.252697862 0  393371.710206733 5983576.325812268 0  393638.9721728675 5973623.513063556 0  371727.9212466564 6017113.044457142 0  364687.2762977295 5959941.212693035 0  374995.9462927962 5960346.83186599 0  369841.9126663716 5954782.59950515 0  400766.1144249197 5954782.59950515 0  338917.7109078234 5954782.59950515 0  369841.9126663716 6048753.88242996 0  359533.8454135222 5954782.59950515 0  390458.0471720704 6048753.88242996 0  338917.7109078234 6048753.88242996 0  390458.0471720704 5954782.59950515 0  359533.8454135222 6048753.88242996 0  380149.979919221 5954782.59950515 0  349225.7781606728 6048753.88242996 0  339867.4956514095 6005339.817053361 0  333737.9460226952 6002130.523287664 0  336955.8140048417 6012008.440073739 0  377097.8989316926 6023232.32559834 0  371748.9790486701 6028016.629988787 0  338146.5171983215 5993298.164761053 0  355016.8390227688 6017610.913088997 0  393953.1528190996 6018968.416019509 0  335185.8133477239 5965142.63403323 0  328616.6041642396 5967263.80307608 0  380314.9487662361 5965460.362415641 0  354622.8993466098 6032976.142863722 0  328521.4725131759 6027215.026914048 0  334465.0783479523 6034070.534389696 0  328123.6212682287 6009699.206425843 0  381889.5169855529 5973936.741901617 0  359122.3484437474 6036790.002992895 0  386341.6533148278 5979963.279841923 0  400798.2159679119 6012477.871311778 0  388538.3765260249 5967461.292146791 0  340833.8784183678 5975728.708105717 0  355307.6239213505 5988552.151815021 0  362181.4274823388 5981261.937800813 0  353784.0322742948 5981044.538811012 0  358045.1698423899 5978741.391518688 0  328423.7350325213 6036912.015930048 0  366897.6876966125 6027277.723668203 0  347355.1745641421 5978532.307510624 0  376820.5060332146 5979033.270735624 0  349378.1778589479 6024378.632814493 0  327189.2282939323 6016451.253924556 0  338433.8773236172 6036753.902881841 0  350141.9760340559 5987605.90026687 0  363794.7083927878 5991713.491814731 0  350325.1285660182 6035273.515460094 0  382355.9358007369 5983507.499638396 0  327107.0747437811 59811
[...]
<PointData  Scalars="f_47234-1"> 
<DataArray  type="Float64"  Name="f_47234-1"  format="ascii">-1.7058321204050339e-21  -7.2563167957466910e-20  1.1883534010293468e-15  6.2225780848802373e-19  7.8185003390835063e-08  -2.5115821915709672e-14  5.2518830528283440e-12  9.9668635871774660e-17  1.6478183538174526e-02  4.2600177638702622e-16  9.7545655836897640e-08  1.2946382642604263e-09  1.4451177547968195e-15  -3.2534585169279114e-08  2.4178846203676013e-14  2.7142750932597301e-12  4.5988395838929529e-12  1.6629249216957553e-09  1.2633336054304929e-04  6.1901538698831360e-01  3.6701110689191211e-06  6.2198465786300815e-17  -2.2861324170087591e-16  -1.9283247130561623e-10  8.7498708053899153e-14  1.2670566577644798e-02  -5.5462672089592746e-11  1.1696623340032210e-04  1.6043930904219194e-09  2.4693038215290284e-13  7.3700123621712964e-10  6.7805997307880025e-13  5.1802335129855215e-13  -3.1402426039362638e-11  6.0933581421697499e-12  1.8967846672914618e-10  1.7488441574054261e-05  -9.1865287820947468e-07  -6.0136393316398758e-02  9.6034136710981690e-06  1.2660546320714618e-04  2.7511640296710055e-10  -3.7977868594786050e-17  1.6131788114973863e-15  -4.8039141100377269e-13  -7.4065942266715192e-19  -2.5441655143367089e-19  4.0116399957928722e-08  -5.7576915875454406e-14  -6.1163800379265821e-10  -7.1211353501052533e-13  8.5301938627958220e-10  1.4414385035718744e-10  5.9307953913346601e-07  -4.9769759328994062e-06  3.8021158816597946e+00  7.0547692303624978e-04  -1.4219271064676679e-13  2.5493248994863716e-17  -2.3499141297401530e-17  6.0859438484963772e-15  -6.3096968027681575e-13  1.0903587117692149e-16  4.8788902943444276e-13  -2.2359881423157574e-10  1.5612861532115006e-06  1.0845805957300625e-05  -4.9052583805927582e-08  -6.5372227830340510e-07  4.5135100813461636e-08  4.6706487330928473e-12  -2.5934222645096710e-08  3.0473529221810083e-06  8.4942104012688274e-12  -3.2460289751737756e-09  3.2647396096992340e-07  2.6627974416811493e-12  -3.1491419146648574e-17  1.3639488443683138e-09  -2.5833760390395409e-13  1.0261104397123477e-15  7.9164844453618557e-02  6.2820694299305292e-10  -6.8647322806563623e-06  9.4506952910767550e-10  -2.8373956668033529e-16  -1.0317007715523261e-14  -9.9170315513302679e-13  -2.0855612550931344e-16  -2.5410234560324057e-10  3.2904822803382907e-13  3.0833555138588146e-09  1.4316215997291161e-13  5.2121742340206510e-10  -1.1891800141188318e-10  -7.0619254734251757e-10  -4.0011620668257225e-02  3.7640121061971571e-13  3.8973363428943079e-16  -4.7447922873483757e-13  2.6141752650262516e-07  -1.2187214125679500e-04  1.1670064060421428e-03  -2.1509833376768241e-18  1.9603000267091394e-12  4.3478486853076332e-08  1.7942250908317826e-10  -3.7603359538678732e-09  5.8694272355389904e-14  5.5997115372586191e-10  -7.4909831956880777e-11  1.5789752005629210e-11  5.1543467137851558e-07  7.4784626568748621e-08  4.1758210544761771e-10  2.2078698329169089e-03  -1.0828590582592425e-03  1.2717061884328625e-13  6.6450984078282561e-04  3.6621093649484404e+00  3.2147811880850248e-08  4.0911466627275228e+00  -2.3240593547108718e-05  4.6681974931689261e-06  5.2706939630871763e-04  -1.6204759688930150e-15  4.2840953583899417e-08  3.6986214410886769e-06  -1.6821220794587910e-13  -3.1180166022511562e-20  2.6602889770408486e-10  1.3856621302288093e-04  1.8086796858440187e-12  3.8914936978469795e-10  -3.2448307738441795e-11  -4.2795516514801298e-15  -2.5847240559541699e-13  4.4799396775240084e-11  -1.2305428591534062e-05  1.0131975893752526e-05  1.8973772019437641e-08  6.9818975499802882e-01  1.4025478418531529e-04  -2.7259894352517978e-14  -1.1097653093185688e-12  -1.3943798799161013e-05  1.4214828019953333e-05  -3.3975419350985167e-10  7.6569715270964126e-11  -4.2726105670504212e-13  1.6343518082808747e-07  4.2672936962067055e-06  3.5640275308490335e-20  1.0709155450933951e-01  1.2419078157619125e-13  8.7177916293833393e-05  -2.1484498819407264e-09  3.3472783513524570e-12  -1.1747127127530290e-17  8.4437339551033180e-11  7.9156893281389725e-14  5.6187104472472443e-16  1.7882396799949006e-13  -3.6327657000953108e-18  8.2220753272155093e-09  -4.1953508873417743e-15  3.0692289208957913e-17  -4.4584974309227781e-14  1.6900287903118636e-13  -1.1453542931158567e-11  1.7332691632480776e-03  -2.7484771137400948e-12  1.1270340090698374e-03  1.0355345655382940e-09  -1.2569493224135666e-15  -1.5158555363488439e-13  9.4770330284157067e-01  -1.3669666604534340e-17  2.8598107646494099e-08  3.7352969982803913e-13  1.2536978586271202e-08  3.6314793734157667e-11  -1.6972949559144715e-14  7.4460226493963079e-07  1.5976147302220639e-11  2.3394920563230587e-11  7.1945018593987077e-11  -3.0785106307317533e-12  3.7752328339135194e-07  3.9267990112027550e-02  2.6338256279007041e-18  5.8735315430384887e-04  4.0679161781267589e-10  7.4428328097877560e-14  9.1379600830899330e-03  6.1231978578979724e+00  -2.0599053436843625e-18  2.4964291315350465e-11  2.8073124998976459e-14  6.1723331754234015e-19  5.6882862035981716e-06  3.1072598734601401e-08  8.1271130666705799e-04  7.5167734828437883e-11  1.3786038158086079e-10  -1.3495616645130243e-12  -5.3163856982379423e-15  3.2385499334075022e-16  8.4422495443092871e-15  4.2226660039534445e-13  3.8199830495714696e-16  -6.7955630989690515e-18  2.2150576865409240e-12  -1.0395328426806628e-15  2.6772202139355884e-12  4.1659908759451468e-16  1.8772956132707960e-07  4.3865545658750337e-09  5.9897511280185902e-10  -2.3804849796113688e-07  4.4230008108883321e-08  8.5394443924629939e-09  2.0320500601708598e-06  1.0641765348120967e-08  -4.9972352695926565e-16  -1.3683551527170358e-15  -2.6085883461763306e-09  9.3858185277329353e-12  -9.4046937043868593e-16  1.0265006548102122e-15  -3.1699075594750849e-12  -6.5141237611375581e-07  -1.5072623503065769e-11  1.1061581346948039e-04  5.5812728543773636e-08  5.2111444596157404e-08  2.1541490933164852e-11  -3.7682770697086827e-07  2.8426974956258657e-06  -9.6893278161831586e-10  2.2923279097898096e-07  3.3924024306867749e-17  -1.1224122782928264e-08  -1.6930099909643208e-10  -4.0304003956191825e-05  8.3343666091978462e-09  -2.1031915079343301e-14  -1.0128729811282290e-15  -6.7022478992837298e-08  -3.2327750844930004e-04  -2.0108841343409467e-12  5.6248224194989068e-03  -1.7386585895901836e-15  -1.0702328280142065e-11  -2.8226898769357833e-13  2.6169881396678187e+00  -5.4708647846948125e-08  -1.2086080625410981e-08  1.6695063961313705e-05  1.6760412873213901e-13  4.0540852276118010e-14  8.2801553341505819e-11  -2.6657291335185246e-14  -2.1250354362539479e-13  -3.9051002798551734e-07  -1.8328201400326369e-03  -1.8913318625663290e-14  8.4830140687747013e-01  -2.4268152319959620e-12  2.9839842062402624e-06  5.7286341874256156e-03  3.7050832286045385e+00  2.4969883797219909e-07  3.3762816072282705e-12  4.9946485701390779e-07  1.7303154474941377e-07  1.6045111407537414e-05  6.1838652167173186e-06  -2.1428533197039644e-03  -3.8485486486124632e-10  1.5531834677374640e-08  -1.9760005913089092e-09  4.0194549004032612e-05  -3.7458100595208602e-04  2.4178044536638664e-03  -8.8114200337174556e-15  -2.7994503101442290e-07  4.1774193611847439e-17  -8.3281143061383084e-13  1.9793700160623515e-06  1.9100499223517201e-09  1.9863672421817593e-07  2.0555459536224477e-15  4.0301950979045166e-08  3.7819543686120666e-09  4.0721561958234752e-02  6.9887664229375891e-11  1.2975368926922885e-16  -8.8520548721643778e-15  -2.2484320120110916e-03  1.2659699369076095e-12  -6.0437115110082145e-12  3.4060664456955779e-14  2.1451821333393017e-09  2.0296601731329407e-17  1.6888178379339688e-16  -1.1316733221909312e-16  4.5887374161811501e+00  4.4681464007911728e-15  3.4624050397188131e-05  1.4149673592158257e-13  -2.4333416875011026e-17  1.6675170482876007e-12  1.3905437799342316e-09  1.8570486477162555e-11  7.1207457083397790e-12  2.5940499231998778e-07  1.0661301941913621e-10  8.6951378857031069e-13  -1.6221241891612566e-13  1.9562908613172981e-09  -7.6864574734492767e-06  8.8121301873479089e-04  1.4151301017205839e-02  1.5596862075028845e-13  2.3223735627214460e-09  -1.2233306645324073e-11  -7.4758698627791274e-18  2.9882331255421610e-17  -2.6457382284792273e-10  3.2881800077819621e-10  1.7546544748825911e-09  2.3794743882132446e-10  -2.7545207312815539e-13  -4.7010649399414066e-13  6.8034647201667688e-14  3.0107926456767786e+00  2.3852414706172282e-07  2.1296799634707387e-10  -1.0056941831579387e-07  3.9172663959802491e-02  2.5651270339231980e-02  -1.1766783968651197e-02  1.4653107143420410e-01  -9.5806517185759543e-15  1.9025064867657251e-05  2.0004682371998723e-08  -1.1602813925374040e-11  -9.9097185063473158e-10  3.1064798226677246e-10  3.6913552927747934e-21  4.4211840415558138e-19  -4.1542540250350068e-06  -5.0761695452057612e-12  1.8433413090290617e-10  -8.7062428042534649e-06  3.5882923200958067e-13  7.6334487693976721e-08  2.7517439495006049e-13  2.8003245216863865e-07  2.2275190922863984e-06  -3.0577506737094750e-14  -6.9826688714588660e-18  1.5342629971628554e+00  -8.8623383194675053e-07  9.4846179583245682e-11  1.7008507692956424e-09  2.2455923247370945e-10  -8.5198382735208627e-19  5.4844718161295272e-16  2.1932024074376141e-13  1.5640228030885583e+00  4.5693592987395712e-07  6.6796334978680186e-12  8.8374472575538536e-13  -7.5658440777318519e-11  3.2502719549663279e-09  1.6110214627973201e-11  -6.7456794769167492e-12  1.7013086623379345e-05  3.7963754898781719e-05  1.7819554323195896e-09  -1.1352085194162658e-14  -1.2707731939612982e-10  9.0902097732057271e-09  2.1950870219067115e-13  -6.1285251060078924e-11  -2.4775326021249354e-05  2.8054599748317167e-07  3.8877452763366900e-09  4.4049648954756733e-11  -9.2267827458593446e-14  -1.0110214392797061e-16  -2.7049099813607923e-12  -3.4789859500568353e-04  -2.5844929007662663e-09  -3.9591738786449435e-11  1.7047106958220207e-08  -3.2986812916316951e-10  2.5991724802964960e-10  -2.2806383629081377e-09  3.7517887354637626e-08  -1.9793854094647052e-14  2.3125156612089435e-10  1.3749818634424885e-04  1.6656526494800978e-05  1.3634512208291117e-08  2.9887388264175646e-05  -7.7402300834815204e-06  -5.0371399872740801e-08  1.6500831406859745e-05  -6.6631946838410125e-12  1.1061179347074719e-12  -1.2658133935754146e-04  1.2852953656908985e-16  3.6055005414984069e-02  4.9015289445328429e+00  -2.7002525069685580e-16  7.9461903548126567e-13  2.5188674990972225e-07  1.3502831181036910e-08  2.2716900599187572e-04  -7.5994962806305172e-13  -6.3033850516344064e-15  8.8339100946485074e-14  2.0392743164183358e-14  -8.6717973769689667e-14  4.3305152722254438e-08  1.6693653963480449e-06  1.0458687943359989e-09  1.1088749026529056e-08  4.9260173444212760e-14  -1.1764826099961933e-05  1.9763449771752260e-04  -1.1370348772938342e-04  5.4361313432384601e-08  1.5287040561426516e-10  2.0660492113351043e-08  -5.9022923118794958e-05  3.6842259058640080e-06  1.7536436339447220e-01  5.1103581809946631e-07  2.7686596598713508e-08  5.8216727295901372e+00  -2.8522255631937631e-15  -6.4205266619135220e-10  4.1217332600576315e-08  -7.6113531619878476e-07  1.6903444790922594e-12  1.4437990394088324e-09  -1.4744825276940813e-13  -4.3522770465684486e-02  1.2761755939478509e-04  2.4967085109026734e-11  3.9069843200889043e-05  -7.9321751291641731e-10  5.9393322859523826e-13  -4.6106078512608803e-08  4.1059418652381767e-11  1.3468725159077567e-04  8.8040553481136095e-12  -6.4273423247848635e-13  6.7310512153948881e-11  1.4795102611040650e-09  -8.2651599286392767e-16  3.1207405054851007e-10  1.7145638067004419e-13  1.6226401358931743e-07  1.7010308392899221e-08  3.0024124600558160e-04  1.0150741219616170e-11  -9.9567380540482601e-08  2.7623393250191869e-08  -1.5329336368973259e-16  2.1432724794387020e-01  1.4769114608525858e-13  2.0512996776920657e-08  2.2553731788042243e-11  7.5549042126133919e-07  3.4438147209263148e-06  -6.3515880289773683e-16  5.4826285146644265e-07  2.9554640949730229e+00  8.0809012004484044e-11  2.3342804523752638e-08  1.8707854437779314e-10  -1.4547236096590830e-11  -2.0270014883835990e-13  1.7669457876673305e-10  1.3173646535149254e-02  6.7902961701267435e+00  1.8474533349071471e-08  2.2515979842168287e-09  2.6040428253866239e-18  -5.2775710373959980e-08  -1.1054803746169961e-07  -3.7574088861178228e-06  -2.1450712087938788e-12  -5.2206228502590401e-12  -6.7162697455570648e-13  4.3767331181456800e-05  2.5271366336202322e-16  -5.1827100067345586e-17  4.2242631168756279e-17  2.4794649067264563e-14  -7.0386700426888144e-06  2.0706612970991254e-05  1.1544102995548449e-05  -5.6692800103518579e-13  -1.6912840815092332e-06  -3.1118156320959952e-11  -3.8348303809498258e-08  -4.0878464208557645e-13  6.2838609052788693e-04  -9.9029104227088874e-06  4.2159333924169920e-07  4.0319815099796223e-09  -4.4276968454361320e-09  9.7340520724873356e-08  2.3962147286372568e+00  4.3647929150026549e-01  1.2835121028662574e-01  -1.2223016969633563e-06  1.9190790299771765e-13  3.1717277521955349e-04  -1.0606610991196637e-15  2.1234108947219983e-12  1.2215482425087647e-11  2.9133736347121292e-13  -3.5109345651931378e-13  5.1323427176564564e-12  2.0242640295656696e-19  -2.1584847826739424e-06  2.8774628193789336e-14  1.4560299965269880e-16  3.5009885473912034e-14  2.9428482826786295e-12  -1.6029773763683561e-12  4.6434161744641699e-07  1.8379199206811776e-18  5.2454193638488899e-19  2.9816775887226938e-12  -3.4254806435537508e-21  -2.6769691571890033e-06  -6.0733478567795269e-06  3.8860232708417121e-04  1.8540796697878951e-02  8.8178545106473224e-12  3.3596418350414033e-04  -4.6946030851715388e-16  1.0674008978466646e-06  -1.4804958300929706e-10  -4.3085545347602140e-09  1.2649085710539332e-07  1.8108515129105557e-09  -1.0236757333476045e-06  6.5259974211869424e-17  -3.6392103044521725e-17  1.0726911301894223e-14  -2.9410636615966667e-16  2.1110841082775425e-12  -5.3803695491585329e-12  1.6862690892354122e-05  1.4293865488064013e-08  -6.2666878649068216e-16  -2.0397076475254016e-07  1.1889678077732357e-08  8.9462773764771446e-08  1.1447096420224912e-03  -1.7021515992099260e-08  -4.8085867262879745e-16  1.0146031084436433e-12  4.0673154902792653e-13  -5.2290317835375712e-12  6.5356274075700793e-12  -3.6302079732842327e-13  -1.9344681221288776e-15  7.9960227945775771e-12  6.5997146845716348e-10  9.7947491025092732e-11  -1.5812806130914002e-13  2.7498335176575606e+00  3.0650575186046374e+00  -3.3247204208035122e-08  -5.0005006947868304e-16  2.3296915700071158e-13  1.1150082763212930e-13  -1.5016654659021506e-13  1.4375177663702863e-18  -1.3860887517791406e-12  1.1566227157053057e-18  -1.4226376630869071e-02  1.8954326177221920e-01  -9.4722656778472824e-12  2.5476719494682946e-12  3.4029951167804401e-11  -6.6952523608833377e-15  1.0687841189968277e-16  1.5332292354797066e-10  -1.3019748687048589e-05  8.3658229518162462e-06  2.2127067376506617e-04  7.3964108240951822e-09  1.6546161854278892e-04  7.9516701862806793e-03  3.2836101405212359e-03  5.8984013772259414e-10  4.6435369736545244e-10  -3.4200117952589121e-11  1.8519371124199498e-10  6.8116639834083418e-13  -5.6540059327150207e-15  -1.1166103939334517e-10  -8.5657960291010831e-15  -3.8670305836661483e-16  6.7389304702582524e-10  1.9397183825333895e-12  1.9121616770199088e-12  4.7932393566133855e-19  -1.6958163464672493e-16  1.5017451179409480e-09  1.8870359725165680e-14  6.5497598561911737e-08  7.7587925526234406e-12  3.4606083436764170e-11  -4.3283161955828345e-13  2.1110289069416341e-06  -5.3466319205796305e-10  3.9587263195166711e-07  1.6014564870855312e-10  -1.8989227606456413e-14  -1.0692044783665217e-14  -1.2701120243989255e-14  -2.4531427729071045e-19  -9.1135587474674317e-17  1.1946278742760708e-17  6.2537296527575628e-11  -2.2800203153268848e-09  1.1231359963952709e-11  1.3713156313241485e-11  -2.7321951239633015e-08  -8.2147244727482851e-07  3.3677127016324755e-09  -1.3526147635524813e-10  -9.5273177458747686e-09  -2.1794754712795257e-08  1.0247595529223186e-09  -8.5194715774237864e-14  -7.1328579236759312e-16  -2.3519372364486625e-12  -5.2126912656593020e-12  -7.3796484047309226e-14  6.2081652707228584e-13  -3.0174293078845363e-03  1.4929815264341082e-07  6.4169285415793038e-13  -9.4089754345648080e-05  2.5052137623899998e-10  -9.0106678076948562e-11  4.1261196734714773e-12  8.1283763045133862e-08  1.0068324838137157e-03  1.4249892612975890e-19  -2.2694644074263271e-19  2.3409935448532567e-03  3.4814411803195597e-18  1.6495862009564150e-13  2.0631940579597378e-02  -5.1867895669688628e-02  -8.5559837129089205e-05  3.5605174586560787e-16  -8.4677054138184537e-14  -3.5752026316913169e-02  1.3062812485617394e-07  3.6577967188804488e-15  2.3814377101215043e+00  1.2155133298870174e-12  2.1153041533626214e-19  -3.2971632294150107e-11  -4.1492380713161157e-15  4.3378566585503196e-12  -1.2609178385510267e-08  -6.9330010296574911e-15  5.2993590639019889e-09  9.3319202928905292e-14  3.8800221059653156e-01  1.0837847921711675e-08  1.2921893233603921e-01  2.8582693234916715e-07  1.3977262479858245e-12  2.5898133251531125e-01  1.3853200401941792e-10  -9.3507738653984108e-09  -4.5463520791631740e-16  -1.1369484305606532e-09  7.6269177522046453e-14  -2.2360308320113034e-15  4.7145803715724534e-08  5.8947580612945246e-08  2.8863055773970979e-13  1.6167425528055490e-06  1.7389936547966476e-03  -6.8127409094337368e-06  8.8986502583300570e-02  1.4409244720784863e-13  2.5559688244160702e-11  -5.5586265881749376e-10  8.7130234318251326e-10  -3.3328831985496098e-04  1.7203988668195747e-11  -4.9861512748956630e-12  1.1487607665861458e-13  2.8070230397455922e-12  -5.1024694064965044e-11  -2.6173569035897953e-13  3.2955611162261344e-13  7.3544976335982488e+00  9.7716970706955976e-05  -7.1432143405031237e-04  1.8798109024636704e-04  -1.0528772413187729e-03  5.5990327098798524e-02  1.3920654865244779e-03  2.2394987249924885e-08  2.7957883462749855e-09  5.8778130734268906e-04  1.5122729847399203e-15  -2.1926443004271525e-09  3.3982850349796336e-12  -9.0663732983807597e-08  -4.0677401075990687e-08  -6.4574599918481006e-08  -6.2784226340419064e-05  -2.1947629967994612e-15  -4.2715812414160933e-15  3.2581090988449647e-07  5.5685206230807134e-09  3.2274948830101332e-09  6.5793380307514793e-14  1.5897363913858194e-11  1.0016371060417126e-06  -5.2701209255586952e-07  -5.5970380401793484e-16  -1.9247408637591490e-17  -9.3211548479303562e-12  1.4208197925507785e-09  6.6434135458767195e-09  1.4318695682573986e-08  4.6038712722356812e-08  4.4964059066622404e-07  3.1215548131512899e-10  -2.9137671488710985e-05  -4.3535979681122037e-18  2.0443680397445713e-15  8.5771281121955334e-14  -2.7047363488721707e-09  -3.6721251563713456e-11  -4.3220611311427431e-17  3.0481555178354598e-16  1.0252725313849872e-16  3.2109972703703088e-16  2.4841553357848161e-08  7.7383063234401226e-09  9.5230250054992402e-10  4.1047638814037965e-06  1.5158628514305981e-06  9.3034198528550903e-07  2.5295185944359404e-11  2.2531246977598857e-06  8.0268034185199277e-12  6.6456505426619276e-06  -5.3564160688151359e-16  -3.5234923318705489e-12  -3.0840456049887827e-12  9.4612058068656801e-12  1.5516162293771632e-10  4.3790041857777716e-11  4.9350673836943298e-10  -1.5437347553407022e-10  4.9478344907516905e-10  -1.6986797593958205e-10  -4.8292495460373813e-09  7.9677365051448240e-17  -1.7169427880485598e-20  1.8246654305823652e-12  4.7757233471794057e-13  1.9425873245416042e-17  3.2309430139826799e-14  -3.4170016961704450e-16  1.2730908256056738e-13  -8.6267015359933798e-13  1.3635554014906609e-12  -9.5247600355739131e-13  -5.4978041935831742e-16  -4.7218388645354314e-14  -3.5622281458823474e-18  5.0019713477023464e-16  1.0077568701772134e-18  -5.9420309830239456e-17  1.6978954880537905e-14  4.9249151122218926e+00  4.8777813754979656e-06  2.4065490055341360e-06  2.2683969239648647e-07  1.9271372983614792e-15  -2.5527742280986357e-15  3.5873039546997335e-13  8.8026497636102685e-19  3.1331128876902782e-04  3.0688516518204586e-09  -1.3278510376046161e-14  2.2533986922458741e-03  2.7579380430008064e-16  1.3269733649678616e-07  -3.5574682367814772e-11  1.9565955956214917e-05  2.2935307729482603e-1