<?xml version="1.0"?>
<VTKFile type="UnstructuredGrid"  version="0.1"  >
<UnstructuredGrid>
<Piece  NumberOfPoints="3002" NumberOfCells="5870">
<Points>
<DataArray  type="Float64"  NumberOfComponents="3"  format="ascii">323455.6100285493 6048753.88242996 0  323455.6100285493 5954782.59950515 0  405920.1480513444 5954782.59950515 0  405920.1480513444 6048753.88242996 0  405920.1480513444 6001768.240967555 0  323455.6100285493 6001768.240967555 0  364687.8790399469 5954782.59950515 0  364687.8790399469 6048753.88242996 0  364687.8790399469 5996367.117560402 0  323455.6100285493 6025261.061698757 0  382226.6271443229 6022560.499995181 0  405920.1480513444 5978275.420236353 0  323455.6100285493 5978275.420236353 0  353897.8957397301 6022560.499995181 0  344071.7445342481 5954782.59950515 0  385304.0135456456 5954782.59950515 0  405920.1480513444 6025261.061698757 0  354379.8117870975 5975574.858532775 0  381582.8168806895 5978840.396198289 0  384950.2598624413 6001768.240967555 0  344643.0480768835 6003429.02033719 0  344071.7445342481 6048753.88242996 0  385304.0135456456 6048753.88242996 0  339717.0321562298 5986078.187627405 0  337515.036058786 5969821.016310448 0  368062.2614420265 6013076.224998265 0  368062.2614420265 6032044.774992097 0  393987.6142659165 5988729.699941677 0  405920.1480513444 6013514.651333156 0  392856.2821527076 6034589.119828064 0  393514.9611654527 5968369.338068204 0  339399.8087404341 6032061.482581838 0  323455.6100285493 6013514.651333156 0  374995.9462927963 5965504.865595459 0  354379.8117870975 6037976.901948514 0  338123.9088969378 6017031.529131207 0  367397.3120126425 5982072.559192053 0  351882.5752379905 5991998.990225234 0  376945.425450199 5991232.708824487 0  392265.0061656896 6013300.936254065 0  357029.7426706699 6006608.947964352 0  380093.6207558212 6036880.127749795 0  323455.6100285493 5966529.009870751 0  405920.1480513444 6037007.472064359 0  405920.1480513444 5966529.009870751 0  323455.6100285493 6037007.472064359 0  333763.6772813987 6048753.88242996 0  405920.1480513444 5990021.830601954 0  323455.6100285493 5990021.830601954 0  362879.3643765316 5966837.319094267 0  348367.6438548031 5965604.161682394 0  334493.1989038612 5996935.948935225 0  395068.5043068817 6023875.372615605 0  348216.0324377587 6013504.844950221 0  379305.9090074943 6011603.390019651 0  372523.5158233726 6003480.000732267 0  395435.2039568929 5999384.346358113 0  395612.080798495 5954782.59950515 0  333763.6772813987 5954782.59950515 0  395612.080798495 6048753.88242996 0  374995.9462927963 6048753.88242996 0  374995.9462927963 5954782.59950515 0  354379.8117870975 6048753.88242996 0  354379.8117870975 5954782.59950515 0  335074.5981535012 6007206.680367459 0  391925.2695590468 5978591.908877409 0  371969.1707190623 6022560.499995181 0  383872.162544519 5969415.106147043 0  358038.7139835292 5984533.09712744 0  369699.869182786 5973102.2359358 0  369841.9126663716 6041099.453006387 0  343176.7440329155 5994428.220622956 0  362933.5332293962 6024385.235173292 0  330640.1760208776 5984148.625419154 0  348684.7494355051 5983110.856817525 0  399094.9690929834 6007537.420809742 0  345447.6324516311 5974162.84917082 0  332859.7749513451 6039150.972778062 0  344517.044630671 6024057.945416138 0  332973.1214415312 6025037.914505113 0  341428.0126373461 6040493.820728126 0  385874.264691618 5992757.40885039 0  350337.3662538711 6030387.535304286 0  359887.2373602368 6016186.250094838 0  377097.8989316926 6029115.217702097 0  338917.7109078235 5961484.016839475 0  329495.5261590715 5972402.215053552 0  336644.7280634616 5978216.610794215 0  330688.6715098422 5962480.256438018 0  359899.8039476132 6031963.415584587 0  399746.255941904 6030426.523907755 0  385511.6875144855 6030368.508996127 0  387377.735783329 6040763.821024337 0  398832.192399829 5974431.100387635 0  387992.9498994246 5962432.032572681 0  405920.1480513444 5984148.625419153 0  364925.7641745284 6005782.953640081 0  361769.877068089 6041226.651684469 0  398452.9199001931 6040850.732439541 0  398946.6205243983 5962252.502309519 0  362305.5577564609 5975984.89789681 0  356822.8065216601 5998470.186307689 0  386900.7115926162 5984820.732438302 0  329528.0119279922 6032067.230024892 0  331139.6939744562 6013813.572928222 0  398457.5876798834 5982541.698799337 0  405920.1480513444 6019387.856515957 0  398685.5166750694 6017257.578706384 0  348587.9424884976 6042755.309150081 0  369841.9126663716 5960143.732550304 0  380149.979919221 5960143.732550304 0  359533.8454135222 5960172.384722514 0  377147.8814772839 5972649.581024994 0  341756.3455763521 6010124.092444684 0  355615.8176864882 5966311.193813809 0  369144.4338274571 5989807.770003954 0  375185.9047422862 5983510.422041401 0  323455.6100285493 6007641.446150355 0  391856.7960121195 6005888.565703365 0  371978.0245217044 5996361.134308098 0  405920.1480513444 5995895.035784755 0  378877.1880032702 5998073.745937059 0  359056.6617417652 5991643.489540118 0  399278.8743430426 5993436.466134224 0  386116.8775939071 6009922.097099247 0  323455.6100285493 6019387.856515957 0  388994.7833819839 6019826.789191471 0  348897.6207366391 5998116.079250046 0  345456.3301153719 6035064.814295612 0  323455.6100285493 6042880.677247159 0  334124.3013408988 5990072.953472659 0  377097.8989316926 6018059.782440464 0  323455.6100285493 5995895.035784755 0  342871.8474798963 5980154.238874755 0  373596.9793292385 6035659.183886081 0  380149.979919221 6048753.88242996 0  376327.9292813152 6042294.581731233 0  329163.3548105369 6004704.843558955 0  350303.9432136903 6007093.032074522 0  383982.6552804571 6015912.664375832 0  345515.490569988 5988567.439252969 0  379019.812877927 6004678.052169549 0  365541.9137639466 6018750.691894444 0  349225.7781606728 5954782.59950515 0  352493.3399767278 5960815.406895458 0  363683.8130458911 5986976.225872464 0  386666.791301207 5975084.583584332 0  368937.6553346639 5966171.092344863 0  400003.9882214358 5968352.273777306 0  328776.0063842635 5992958.433193355 0  339958.4428758043 5999572.344589042 0  354577.7732363954 6012555.454074449 0  328609.6436549741 6048753.88242996 0  382053.0280278458 5988228.496807038 0  330708.6817934912 5978212.973348036 0  372084.7734679543 5978495.086505585 0  358568.2738174705 5971419.415228934 0  328931.2672829705 5998832.905089681 0  323455.6100285493 6031134.266881558 0  405920.1480513444 5972402.215053552 0  405920.1480513444 6031134.266881558 0  323455.6100285493 5972402.215053552 0  405920.1480513444 5960655.804687951 0  323455.6100285493 5960655.804687951 0  405920.1480513444 6007641.446150355 0  323455.6100285493 5984148.625419153 0  405920.1480513444 6042880.677247159 0  346648.7613474604 5960023.05127712 0  342415.3891593561 5966358.988213831 0  350507.6510228226 5971111.740321856 0  391773.9667214506 5994456.117700323 0  338875.8905424621 6026088.827345025 0  361429.1735454847 6010511.262533597 0  389395.7028803263 6025805.543023561 0  392895.6464692951 6043315.288173481 0  332846.8296575367 6019296.633131165 0  373337.4404588729 6009693.515402478 0  336544.3064612215 6043648.151399015 0  348610.2411382072 6019567.839754772 0  381943.4597763228 6042183.394750732 0  355630.0631288611 6028071.82801846 0  363941.5238882306 6035967.852698964 0  328179.67203552 6022271.326978176 0  401066.2857736665 5998807.415073814 0  344387.1099621175 6029612.545574771 0  393435.2235156003 5960233.556458537 0  400735.9970493424 6022675.638064924 0  393708.5772019727 6029179.837160029 0  400609.0696943338 5987857.851798974 0  361753.6614662939 6001152.171757337 0  400766.1144249197 6048753.88242996 0  353363.0524357285 6002630.165620538 0  343248.328463803 6018790.640008039 0  356419.8105951758 6043365.392189237 0  390234.385899412 6000759.497967276 0  368336.1168551637 6000220.532318851 0  328609.6436549741 5954782.59950515 0  387520.8298169724 6035372.992507171 0  400588.0280660195 6035823.299583429 0  329021.6598427091 6043194.252697862 0  393371.710206733 5983576.325812268 0  393638.9721728675 5973623.513063556 0  371727.9212466564 6017113.044457142 0  364687.2762977295 5959941.212693035 0  374995.9462927962 5960346.83186599 0  369841.9126663716 5954782.59950515 0  400766.1144249197 5954782.59950515 0  338917.7109078234 5954782.59950515 0  369841.9126663716 6048753.88242996 0  359533.8454135222 5954782.59950515 0  390458.0471720704 6048753.88242996 0  338917.7109078234 6048753.88242996 0  390458.0471720704 5954782.59950515 0  359533.8454135222 6048753.88242996 0  380149.979919221 5954782.59950515 0  349225.7781606728 6048753.88242996 0  339867.4956514095 6005339.817053361 0  333737.9460226952 6002130.523287664 0  336955.8140048417 6012008.440073739 0  377097.8989316926 6023232.32559834 0  371748.9790486701 6028016.629988787 0  338146.5171983215 5993298.164761053 0  355016.8390227688 6017610.913088997 0  393953.1528190996 6018968.416019509 0  335185.8133477239 5965142.63403323 0  328616.6041642396 5967263.80307608 0  380314.9487662361 5965460.362415641 0  354622.8993466098 6032976.142863722 0  328521.4725131759 6027215.026914048 0  334465.0783479523 6034070.534389696 0  328123.6212682287 6009699.206425843 0  381889.5169855529 5973936.741901617 0  359122.3484437474 6036790.002992895 0  386341.6533148278 5979963.279841923 0  400798.2159679119 6012477.871311778 0  388538.3765260249 5967461.292146791 0  340833.8784183678 5975728.708105717 0  355307.6239213505 5988552.151815021 0  362181.4274823388 5981261.937800813 0  353784.0322742948 5981044.538811012 0  358045.1698423899 5978741.391518688 0  328423.7350325213 6036912.015930048 0  366897.6876966125 6027277.723668203 0  347355.1745641421 5978532.307510624 0  376820.5060332146 5979033.270735624 0  349378.1778589479 6024378.632814493 0  327189.2282939323 6016451.253924556 0  338433.8773236172 6036753.902881841 0  350141.9760340559 5987605.90026687 0  363794.7083927878 5991713.491814731 0  350325.1285660182 6035273.515460094 0  382355.9358007369 5983507.499638396 0  327107.0747437811 59811
[...]
<PointData  Scalars="f_39379-1"> 
<DataArray  type="Float64"  Name="f_39379-1"  format="ascii">8.0642728009824929e-23  -2.5079584680128006e-21  -1.6995352376072647e-16  2.7746414585287496e-20  3.3240146879187614e-10  9.9960744984022332e-15  -1.0921398482650598e-14  7.7963385002722194e-17  9.1061630948962347e-01  -5.7054030400730560e-18  1.8880078536724318e-09  2.0076934909761707e-12  -4.3221306882676734e-17  4.1477417276872656e-08  -1.5736836707450142e-18  -5.6420820976848857e-15  9.8646928096154646e-14  6.0185907384942893e-10  1.5079670719712435e-05  1.9795023083326161e-03  1.0651592611642356e-07  5.4029447843188060e-18  7.3841065195766755e-18  4.9538208825663431e-11  -7.9156907887571093e-16  -7.8419533813548631e-05  4.6644188328445865e-10  3.8322631862486446e-06  1.5233789190466207e-12  1.3581083659274395e-13  4.5641445546138736e-10  2.0425156068209129e-14  7.2643298617454280e-16  -2.1674342214199909e-11  4.0041921068695707e-12  6.2932876571415607e-11  5.8576222261871779e-05  5.9406658836489489e-06  4.2309165201579635e+00  1.9212546166753066e-07  4.9264351896446501e-04  7.2468956725472379e-12  -7.6592404266150689e-21  -7.5097322795166573e-19  1.8881340435608893e-13  7.4934748919910672e-20  6.1770849341063558e-20  3.1688457558258745e-11  2.8174793804109268e-16  3.3485287947758477e-10  -3.0292283448190566e-17  1.0118063462577825e-11  3.7867416576193886e-12  2.0371385191021803e-08  1.7232360287644347e-05  6.3834810693662791e-01  4.7491335371330680e-06  -2.9796505460293938e-15  1.9483768559703560e-20  4.2451362984960309e-19  -3.1279798383927463e-17  2.7370808064691268e-14  -4.2787322363677584e-17  -6.3618456105216491e-16  -1.4491773415689273e-11  8.4665732690041590e-08  -2.5870714526686683e-08  8.6217058253248772e-09  4.6564317435671356e-06  1.7420070322726489e-07  8.6448269270708389e-13  7.0995030592675343e-08  9.0394544658949675e-08  -1.0934285627379966e-14  4.9477162161644645e-09  3.5796504867917681e-09  1.1491478415544692e-11  -6.2309981561372391e-19  -1.6554944017519270e-11  -2.7329018544555781e-14  1.3794464444438811e-17  7.9445533082393577e-03  1.3810234286405065e-10  1.3715234692520301e-05  -5.7955517083427346e-11  -5.8988140967040616e-18  9.2563873561999236e-17  3.6332470735810789e-13  8.1339280180474960e-19  1.8197531954378894e-10  1.5303271834602455e-14  7.8422891881387536e-11  -4.0676211225089374e-16  6.0098810765840261e-11  3.3291814937525940e-11  2.7002971369810076e-10  1.4965947208540413e+00  5.7231919174383344e-13  3.0556976590937893e-17  1.0954615069602005e-13  1.2234917899242958e-07  5.4602321372896447e-03  1.5886465973415873e-04  -1.2104203888984976e-17  1.3996827373464101e-12  6.1404706523299637e-09  -1.0689697176048050e-13  3.0408968743238329e-10  1.0324661470306381e-15  6.5327186055018760e-12  4.3076639041748303e-12  4.8107303150466265e-14  -9.6230438603605194e-09  7.5842685019987561e-09  1.6816668505852838e-11  -2.8567282514435494e-03  -8.3622596868699979e-05  5.4954872733978213e-15  4.5553305508812830e-06  6.3081462690601748e+00  1.6552081169258793e-10  2.2948234622137398e+00  -1.9369977828779801e-04  1.9101765606111038e-07  -1.9920452865920742e-06  -3.2532626263418700e-17  1.3376237868627588e-09  -4.3150158028093402e-07  1.0641473997267379e-13  -4.9453288628681010e-21  7.0787356079594607e-12  3.4528951692067135e-06  -2.9773009973776113e-15  -1.3848753912724119e-12  2.8638012847752165e-12  1.6343836448968842e-16  -3.7051063525078904e-15  1.2081271749362392e-12  3.3220182891660145e-06  1.1331828226154560e-07  4.8078082037740591e-10  4.1284392164687425e-03  3.4766981491749568e-06  5.8828770617393900e-17  5.1465433357088140e-15  -4.5368668601610217e-05  4.9544886171098035e-07  -3.6484522142312204e-11  9.3991195241277644e-14  4.9398117771825105e-13  7.9859106187922655e-09  5.9123789569398921e-06  3.0939766914057649e-21  -9.4839771465823324e-03  -6.5487266140286590e-16  3.0589172390635419e-06  -1.3466062678792576e-10  7.6904752401742578e-13  -3.5819407394790468e-18  2.3362344450055232e-12  3.9652983065215018e-17  -5.4509698964316540e-18  -4.1065348571181738e-17  -8.3749894649182662e-21  1.1136435538668379e-10  -4.8194096907370633e-16  -2.4733482102401699e-19  -1.4354053909109871e-16  3.8544603654731640e-14  4.3758670628734619e-12  6.0913945413147106e-05  2.3530488023295777e-13  -1.9754162661853993e-04  1.1525208361007572e-12  1.1837038885275307e-17  1.1872554109206268e-12  1.8509005603398892e-03  5.4315379508321226e-20  2.9221461346413623e-09  -6.0718837578763926e-16  1.7350083227969083e-09  3.0917214070954592e-12  1.0793649056164674e-16  1.9097014277698236e-09  5.6304958249021805e-13  -1.5282555988007571e-13  1.5053145584319284e-12  9.9592169561647096e-15  6.0367832734997381e-10  1.1849329791312995e+00  1.6137667581780099e-19  2.6864331961458279e-04  9.6990668856144601e-10  -1.1039450921490610e-16  -5.7793051619749115e-06  8.5493050925268523e+00  2.2207519566631931e-21  7.6129915491858638e-13  -1.2931174425162633e-16  3.7818756966078071e-21  5.9014799480577961e-08  2.6564451747620288e-10  -1.4440669817892533e-06  9.9939178149844526e-13  3.6203939904847281e-12  -5.7636324370974736e-15  -2.5735223622510706e-15  -1.6970160776805437e-18  -2.2337278513013046e-16  -1.8565780946204706e-15  -4.5770959716321995e-18  2.8079846294338714e-19  -6.3094770310776777e-15  7.7933829307939503e-18  2.2463988868054605e-14  1.8180516028112446e-17  7.8360000649148695e-09  1.0888317348039104e-10  -1.0620931290028702e-11  2.7486632390149938e-08  1.7633084488310068e-09  2.6580765574469554e-10  2.5192871639602243e-07  2.3901250328717280e-10  1.2420520558136253e-17  -1.9188507302177205e-18  4.3872999850563624e-11  9.9468056971517408e-11  -3.0147611286851058e-16  5.8094799528662632e-17  -3.6228329502972840e-14  1.1430710830224548e-07  8.0654228217411436e-12  1.3387325089824242e-05  -1.0018578776659118e-10  1.9878126647005185e-10  -1.6597377310950020e-13  3.1344396196877258e-06  1.7380145297900863e-06  2.2149492235131648e-08  5.6505286652289406e-08  -1.2634174995142291e-19  1.1401401191373660e-08  3.3556422140819456e-10  1.9472979280910509e-05  -1.3309550900798649e-11  -9.1249670095467480e-17  -2.6129500463475278e-17  6.1705186485374240e-08  2.0737267419333922e-02  4.8602831847002303e-13  -3.8532280518291259e-04  -2.3159427578273402e-16  2.6453223315757389e-12  2.3436997203989977e-13  2.4361017459395767e-01  2.8887578413875646e-09  9.3952808031092008e-09  2.6720826524620543e-06  2.0700845595833595e-14  2.8062034486471514e-16  2.3622367957637136e-11  6.4239469923211867e-17  -1.1149211182177494e-16  1.5934502150026165e-07  1.2412208406748168e-04  1.8275577773414415e-16  3.4829238470064422e-03  -6.1320952497053926e-13  3.5323740446741047e-07  -9.8682815022567747e-06  2.5793471253427329e+00  6.0055762153092552e-08  8.3524974552341470e-13  3.2614601740677613e-07  5.2266192329984668e-09  3.3940275354390343e-07  1.2296633223754399e-07  -2.3211776786163853e-05  3.8480996498530729e-10  5.5121189106645955e-09  9.8564037163358029e-10  7.0079564878692802e-06  4.0797850545153408e-05  7.9316361897616107e-04  2.3628604883446621e-16  1.6508375692149189e-08  8.2653912066050243e-18  6.4523287037605544e-13  1.0515813091187465e-07  6.1491799313519983e-11  1.2637155884597891e-08  -2.4768119953802804e-17  1.0296004871857876e-09  9.0595642028544575e-11  6.2090435456104431e-03  1.6566160795636189e-12  -1.9570210766240556e-19  -4.8204457074391950e-17  1.5497413559441292e-04  1.5373256801733701e-14  9.2888421426683940e-13  -8.9591399056003705e-17  5.1642770803871804e-10  1.2239047812642757e-18  1.1303978157349780e-18  -1.1914949113685180e-19  1.4852527447764869e+00  -7.5654802751602620e-16  -4.3339182932892158e-03  -3.6626267442077895e-16  -4.9353974856223555e-20  -1.3588498002235107e-14  -3.9787371491263156e-12  -2.1346616317094807e-12  -3.0359685763758262e-14  2.9397911768823981e-08  2.0827944057276166e-11  4.5182314489187563e-14  -1.5051421365865786e-14  6.4288416801345912e-12  1.0361472990804537e-04  2.0208018831273478e-02  6.9969489422212986e-03  -1.6851852582375328e-15  8.1287651842624721e-10  2.1726491320764182e-12  2.1865760054113147e-20  1.1641676566390950e-18  -1.1064885111312022e-11  5.5193283923738647e-11  -1.2948118714407729e-11  6.9430518730099130e-11  6.6681509102916648e-14  1.6689874041395750e-13  -2.9000301965114499e-15  -6.3029200361158283e-03  4.9465965665436023e-09  -4.7375715254932033e-13  7.8792734726208565e-08  -1.3008845589151524e-03  -5.5841486402540405e-03  1.1878832905079968e+00  1.0802129359823063e+00  9.1690517120015407e-16  2.6593529653846549e-06  3.8661503285878675e-10  1.6538306026599499e-12  7.8170461842633537e-11  2.9606977274654478e-09  -2.5693921184789913e-22  2.8440180363667134e-21  3.3650774826799468e-06  2.7962114297339037e-13  1.5444109788955573e-11  8.2230083239788194e-05  1.1268344230535874e-14  5.8190932231714154e-08  -6.9286745019194704e-16  3.0343314356828144e-08  4.9518551118184450e-08  -4.1089915868547604e-16  -8.2034459474366576e-19  4.9714035394357245e-03  1.9564167175800155e-07  -5.8879876050076360e-13  2.7599712907502298e-11  4.3973463014889245e-11  1.5963231714812957e-20  2.5309988261210099e-17  -6.0516142964940151e-16  -5.8225544056409355e-03  2.3191745050803979e-09  2.1564936504704132e-14  -6.6376467068591761e-14  5.7088094553470480e-12  2.7308218266218296e-11  3.7008473798365845e-13  3.7567105189310694e-13  4.2793887451929975e-06  3.7727213624007170e-06  1.3451504031201190e-10  7.0185932491225653e-17  4.4729225280714903e-13  5.8671368185163068e-09  2.8763862730827429e-16  -2.6448165557787169e-12  -1.4991036160258854e-04  3.9139176212327607e-09  1.2331654270928913e-10  5.5853368526679183e-13  8.4022387325242338e-14  1.3028829522010689e-18  -1.2957671037036211e-13  1.4405626123101505e-04  8.7234853346430391e-10  -1.1111328843844242e-12  3.1181943275373038e-09  5.2908379238485201e-11  -4.7912764044945720e-12  1.3911709907913817e-08  2.5471706444922789e-09  -1.0179002232889926e-15  8.1135534711783063e-12  1.8387514317794890e-06  1.0272281138040661e-07  3.3707821771619274e-08  4.2389398679363941e-06  9.5869854294109141e-05  1.6184178629098023e-09  5.1961396938389962e-08  -5.4437107555905234e-14  9.3188175154171730e-13  2.2575455103570759e-04  3.5283316090703192e-18  -2.4656123712440346e-04  7.5256242728790435e+00  -2.7248334018870096e-19  1.0867203570625630e-13  1.6401922131945974e-06  1.4649356813534917e-09  -9.6949459606410638e-05  6.4656581262669813e-13  -3.7285689225857277e-17  -2.5416048764989847e-17  2.2338649171281045e-16  -1.0210497133081304e-15  7.6716596645091655e-09  -2.1125362584814119e-09  -1.1981656784295934e-11  4.9575734759476291e-11  8.1959509798625597e-17  4.0667958857497588e-06  -3.6980486105176996e-07  -3.3550307102631969e-05  8.0362186434058826e-10  1.0955177833786589e-12  2.1090534207044359e-09  4.5392087636949247e-05  2.9379338332696814e-06  3.5371962988146118e-04  5.3047375724046245e-09  5.7878373764578055e-10  4.3482193753134792e+00  1.1415477500509204e-17  1.5268136710380519e-09  7.8637924937805902e-10  1.3590346779183376e-07  1.0441471522034160e-13  9.1281983111099990e-12  6.2020235870066017e-16  5.7936533951128837e+00  1.2453119706772699e-05  1.0523948514222962e-12  8.9833913862603250e-08  7.3791848563274214e-10  2.6211594616130886e-14  4.0406563410674181e-09  1.3398476050481966e-11  1.5242677764863290e-05  -2.2767110231288098e-14  3.8409639749472253e-14  6.0072260644029441e-12  1.9164596430542977e-10  5.6261143626265489e-18  9.8215769602350552e-13  2.7781917089729348e-14  2.4030148065537177e-08  2.7605201008391821e-09  -3.7660429793290789e-07  3.2389024485287544e-13  4.2527161714243998e-08  1.0021818920025531e-09  2.2662316370488836e-18  5.0472711658396987e+00  6.8444951113883856e-14  5.4408032129598184e-10  -5.4330892176622355e-13  -1.2731673550101453e-09  3.2640440499037469e-06  -1.8363537084883256e-16  1.1668061298323686e-08  -6.9722481872506433e-03  -6.3692904318684878e-13  4.0600399656555362e-10  8.8769381183032331e-12  5.5891001024551142e-12  6.4806742111230268e-14  4.6833314168210611e-11  1.6248375607846676e-04  6.3571333177077252e+00  -2.4268242666118405e-11  2.3547501873149272e-10  -6.2271111023255267e-21  6.0027286162694064e-09  5.9664188327858586e-08  6.1613261401162817e-06  -1.8512070265676048e-14  -2.9156863105197317e-14  4.7990279677813261e-15  -1.3489386505903982e-08  -7.4637735690473019e-18  -3.2547396424575024e-17  -2.4349033849253282e-18  -1.3231211100817554e-16  -1.4972980199681507e-08  1.9914552690722849e-05  1.0814710662697351e-07  -1.4830187874121742e-15  1.6632421390385827e-06  3.0817731604059768e-12  -1.6604887192581887e-08  -5.3059644436937949e-14  3.4996694884039406e-04  2.7350231915543314e-06  5.8189686002923320e-09  1.0155483663281583e-09  2.3569702730476971e-09  1.0120725998940713e-08  2.1058005446081992e-02  1.2296840680911183e-02  2.4751517852832571e-04  7.5705320227947332e-07  6.2628624180896789e-14  7.8602464535503219e-03  6.8117005001187662e-17  1.0378816172555080e-14  9.6598344907651715e-14  2.5197790798057322e-14  2.1570292147115081e-14  3.1105974021066717e-13  1.2577852152031444e-19  1.5253653665762683e-06  3.4916780227208245e-14  3.1478724558300408e-18  -8.3139774782517332e-17  -8.5643375860400321e-14  2.1458946520076507e-12  2.1859278987831692e-09  3.8158384036558603e-21  3.0385892506892458e-21  1.1785432902478984e-14  -2.3504667182147485e-22  -3.6320092888908008e-06  -7.3511197176831736e-06  1.1823086157749912e-04  -8.0099048327746325e-05  3.4906432876943747e-13  -1.2835974110524573e-04  -1.0390604703400155e-18  -1.3151017395744576e-08  -6.5663582006675746e-13  -2.3437904625677076e-11  5.1190221799978073e-10  6.5787355240153258e-11  6.5605378503243389e-08  -8.9395911310109284e-19  -2.8877935326501277e-19  -2.9003770524822161e-17  -2.5819388494904581e-17  -7.4100252813653852e-16  6.0590943363794416e-12  9.8844693627448530e-08  8.0987701671414667e-10  1.4043792727337010e-16  7.7618087889333626e-08  2.5241543442417182e-09  9.7742507109226049e-09  2.5304076735395171e-04  2.4712197212381942e-10  -1.8225707257888812e-16  -4.8179613184160388e-15  2.0169448647817118e-15  7.1567513173548798e-14  4.5092617883771725e-12  -5.1414295383100569e-15  -5.9057714006460539e-17  1.9720341734681100e-12  7.1981395973949664e-12  1.7938686103062299e-12  8.6392882925852314e-16  6.2000156059484519e+00  -1.3538045478230469e-02  -1.6204710309072533e-09  6.0443598555995947e-18  -6.5534925485301049e-16  7.6826934082378329e-14  7.7601168565943649e-16  1.0830089653916977e-19  -6.7712632788123333e-15  8.1574525041838118e-20  -9.2163341744393584e-03  4.4214362595912660e-01  -1.9834103822583025e-13  9.3026563555018430e-12  4.1647677860207507e-11  2.3990868402584377e-18  2.6013956546084722e-17  2.0796541373134662e-11  5.8154832687485272e-07  2.8723497982739488e-07  -2.8876509449469236e-05  2.3126432411454623e-11  3.1099011699336970e-07  8.4692514811768368e-03  -1.1352104126602628e-02  2.7367487548386462e-11  2.4659216835813915e-11  2.6506593604344241e-13  1.9234197727114915e-12  7.4011650087268381e-16  -3.0314831988366158e-17  1.0636125386952553e-11  -2.7727180891985113e-17  1.9702873314095497e-19  5.7404681693447809e-12  2.5354123222194901e-14  7.1416000485389926e-16  1.1317928130871257e-20  1.8285296974353264e-18  2.4153489221552210e-11  9.9775817065587444e-17  3.3200309271953976e-11  1.4003588334688448e-12  -7.1373951727152509e-13  3.7408569592769402e-14  -3.9792921884820560e-07  3.7956662922287348e-11  -1.1443303700430406e-09  -2.1025471285446368e-11  -9.5279177669921765e-18  4.7858967065776905e-18  8.7598636362972778e-17  -1.9198603453819595e-19  3.8301203828061246e-18  3.0874917646261076e-19  3.1566878163306132e-10  1.0462510812131896e-07  3.0732155387450423e-13  1.7497775127115626e-12  1.7418671363210285e-07  4.9108250302240307e-07  -1.0982788649467741e-11  -1.4293401052960872e-12  -3.5326214950334979e-10  2.0167698084804064e-09  9.4937501110356591e-11  1.5069223118007417e-13  1.0585136217665508e-16  5.1158671336654819e-13  -3.8906190181538502e-13  7.7686051525694449e-13  -4.0082754312163531e-15  1.0653259325931851e-02  9.8533700974620315e-10  4.0501431270385312e-14  9.7015987727148897e-05  1.9344612478552064e-12  1.7488107237634081e-10  -1.6412152866004468e-13  3.1167053169508691e-09  -6.3621590193400981e-03  -9.7578321135370044e-21  -1.8156076971089653e-21  -2.5520441124649624e-06  4.7457914642785452e-19  8.3869969680809814e-16  5.4915151763531027e-04  2.0730227682658970e+00  7.2874035472786025e-01  2.2790389034699605e-17  -6.9012809088003191e-15  1.0326003270882922e+00  -2.7936657193961638e-08  6.6860720904611621e-18  4.3916424838697669e-02  1.9042819530847513e-14  1.0114088631053274e-21  1.3776291953893158e-11  -5.1320843616450420e-18  9.4623923535664738e-14  4.2797538384060903e-09  -1.1270323529143526e-17  8.5435814138120222e-10  -1.2267343179367088e-15  1.1362068302584266e-02  6.9344339525025570e-10  9.5164173757733428e-01  8.3736307336670839e-08  4.0372382982819852e-15  -4.7567958723969212e-05  2.9032766627020056e-12  2.1528278121237848e-09  1.6895948723233657e-16  7.9059438403400638e-11  6.8013693379231953e-16  3.5696536758351373e-17  -4.2652642274659199e-11  2.8916960228843464e-09  -1.2501007341108247e-16  8.1419274218148747e-09  3.5214041523279929e-06  4.2435906638358632e-06  2.8285677152550939e-04  3.5994808697013444e-14  1.7862512840916028e-12  5.5548005333641805e-10  2.7371492739540519e-10  2.7800503256625065e-04  -5.3313993657905416e-14  1.6653647072495533e-13  -6.7703407443223909e-16  -3.3301606973131639e-14  -8.8588135787283257e-13  1.1215760158556992e-14  3.3183967758683356e-16  6.0776993635838927e+00  -8.0041516398880290e-03  2.3277550774996811e-04  -4.5792195943379108e-05  -4.1733235194576398e-06  1.8140291843837895e-04  7.9423095188045815e-06  -3.7130762516554717e-11  2.0382437149199105e-10  6.5629621926978170e-05  -1.6346987008830946e-17  7.6489922501830817e-10  3.5162054695033645e-14  -2.5034626026921862e-08  3.1836342926450390e-08  2.6170530919289648e-08  -5.4969227165761150e-06  -1.2053753628449685e-16  -1.9439301593181809e-17  4.4105847657756009e-08  -2.7172805674420376e-11  -7.9585346787265982e-13  2.8944366890921422e-16  4.4567634764244457e-13  -2.7782955954594174e-08  8.3902486663267985e-07  3.0720314793090922e-16  2.4653718775211557e-17  1.8633201909219483e-14  2.1948933560048227e-10  9.2283718609025037e-10  1.8511555672537972e-10  -2.2683053284079635e-10  1.8436896866822665e-06  -1.5863532458938518e-10  3.0636477955601579e-05  -1.0657871258877798e-19  7.5584129609604659e-18  5.1461904423710372e-17  6.5023980536670318e-11  -6.7441748210066926e-13  -1.2962755262722595e-17  -6.1448247237151782e-19  3.5338306471559402e-19  3.8677663736982648e-19  2.1359559948393704e-09  -1.4954091894051658e-11  1.6965798661027055e-11  4.3875657351485384e-07  5.0508488028280261e-08  7.6835658412540956e-08  2.5511351596228463e-13  1.7428009780360449e-07  -1.8277447367791577e-13  2.5969866673838922e-06  3.7157636587010225e-17  -1.8008268933863596e-13  1.7480585243265878e-13  4.8911104697481713e-12  -2.9940226566376204e-13  3.3469291316733140e-12  2.0974574890472913e-11  -2.2853037614194030e-12  1.3098742712150745e-10  -1.5630118874702299e-11  2.1298786480471458e-09  1.7049251460208848e-19  -2.2189688757753466e-22  8.5075284876452785e-15  8.8756212104051731e-14  -5.0936349724518126e-19  -7.9101454873737613e-17  2.7151636140969877e-18  -1.6197109593392988e-16  2.4462121062315689e-14  3.1880400545082707e-15  2.1433594499940002e-14  6.6200591403753983e-17  -3.7843255332981925e-15  -3.0601683615235092e-21  -7.9272016531454661e-17  2.7595918039142284e-20  1.1584872007134473e-19  3.1320191819778432e-18  1.8314943140882214e+00  4.2972329935219282e-07  5.2899782206346906e-09  2.2764926425514441e-08  -1.4320051459665495e-17  2.0964286898870422e-16  -2.2449754918677576e-15  -7.7233147734593414e-20  2.1632225821080834e-06  1.2353249792742996e-10  2.6814099959466110e-16  4.7121159796031144e-06  -1.7186403304567964e-18  6.8984399475681978e-09  4.7650816691143332e-12  2.9235920299086108e-08  -1.3910064739773414e-14  -2.2936874405531406e-04  -3.7390153833558781e-10  -2.29