<?xml version="1.0"?>
<VTKFile type="UnstructuredGrid"  version="0.1"  >
<UnstructuredGrid>
<Piece  NumberOfPoints="2745" NumberOfCells="5356">
<Points>
<DataArray  type="Float64"  NumberOfComponents="3"  format="ascii">323455.6100285493 6048753.88242996 0  323455.6100285493 5954782.59950515 0  405920.1480513444 5954782.59950515 0  405920.1480513444 6048753.88242996 0  405920.1480513444 6001768.240967555 0  323455.6100285493 6001768.240967555 0  364687.8790399469 5954782.59950515 0  364687.8790399469 6048753.88242996 0  364687.8790399469 5996367.117560402 0  323455.6100285493 6025261.061698757 0  382226.6271443229 6022560.499995181 0  405920.1480513444 5978275.420236353 0  323455.6100285493 5978275.420236353 0  353897.8957397301 6022560.499995181 0  344071.7445342481 5954782.59950515 0  385304.0135456456 5954782.59950515 0  405920.1480513444 6025261.061698757 0  354379.8117870975 5975574.858532775 0  381582.8168806895 5978840.396198289 0  384950.2598624413 6001768.240967555 0  344643.0480768835 6003429.02033719 0  344071.7445342481 6048753.88242996 0  385304.0135456456 6048753.88242996 0  339717.0321562298 5986078.187627405 0  337515.036058786 5969821.016310448 0  368062.2614420265 6013076.224998265 0  368062.2614420265 6032044.774992097 0  393987.6142659165 5988729.699941677 0  405920.1480513444 6013514.651333156 0  392856.2821527076 6034589.119828064 0  393514.9611654527 5968369.338068204 0  339399.8087404341 6032061.482581838 0  323455.6100285493 6013514.651333156 0  374995.9462927963 5965504.865595459 0  354379.8117870975 6037976.901948514 0  338123.9088969378 6017031.529131207 0  367397.3120126425 5982072.559192053 0  351882.5752379905 5991998.990225234 0  376945.425450199 5991232.708824487 0  392265.0061656896 6013300.936254065 0  357029.7426706699 6006608.947964352 0  380093.6207558212 6036880.127749795 0  323455.6100285493 5966529.009870751 0  405920.1480513444 6037007.472064359 0  405920.1480513444 5966529.009870751 0  323455.6100285493 6037007.472064359 0  333763.6772813987 6048753.88242996 0  405920.1480513444 5990021.830601954 0  323455.6100285493 5990021.830601954 0  362879.3643765316 5966837.319094267 0  348367.6438548031 5965604.161682394 0  334493.1989038612 5996935.948935225 0  395068.5043068817 6023875.372615605 0  348216.0324377587 6013504.844950221 0  379305.9090074943 6011603.390019651 0  372523.5158233726 6003480.000732267 0  395435.2039568929 5999384.346358113 0  395612.080798495 5954782.59950515 0  333763.6772813987 5954782.59950515 0  395612.080798495 6048753.88242996 0  374995.9462927963 6048753.88242996 0  374995.9462927963 5954782.59950515 0  354379.8117870975 6048753.88242996 0  354379.8117870975 5954782.59950515 0  335074.5981535012 6007206.680367459 0  391925.2695590468 5978591.908877409 0  371969.1707190623 6022560.499995181 0  383872.162544519 5969415.106147043 0  358038.7139835292 5984533.09712744 0  369699.869182786 5973102.2359358 0  369841.9126663716 6041099.453006387 0  343176.7440329155 5994428.220622956 0  362933.5332293962 6024385.235173292 0  330640.1760208776 5984148.625419154 0  348684.7494355051 5983110.856817525 0  399094.9690929834 6007537.420809742 0  345447.6324516311 5974162.84917082 0  332859.7749513451 6039150.972778062 0  344517.044630671 6024057.945416138 0  332973.1214415312 6025037.914505113 0  341428.0126373461 6040493.820728126 0  385874.264691618 5992757.40885039 0  350337.3662538711 6030387.535304286 0  359887.2373602368 6016186.250094838 0  377097.8989316926 6029115.217702097 0  338917.7109078235 5961484.016839475 0  329495.5261590715 5972402.215053552 0  336644.7280634616 5978216.610794215 0  330688.6715098422 5962480.256438018 0  359899.8039476132 6031963.415584587 0  399746.255941904 6030426.523907755 0  385511.6875144855 6030368.508996127 0  387377.735783329 6040763.821024337 0  398832.192399829 5974431.100387635 0  387992.9498994246 5962432.032572681 0  405920.1480513444 5984148.625419153 0  364925.7641745284 6005782.953640081 0  361769.877068089 6041226.651684469 0  398452.9199001931 6040850.732439541 0  398946.6205243983 5962252.502309519 0  362305.5577564609 5975984.89789681 0  356822.8065216601 5998470.186307689 0  386900.7115926162 5984820.732438302 0  329528.0119279922 6032067.230024892 0  331139.6939744562 6013813.572928222 0  398457.5876798834 5982541.698799337 0  405920.1480513444 6019387.856515957 0  398685.5166750694 6017257.578706384 0  348587.9424884976 6042755.309150081 0  369841.9126663716 5960143.732550304 0  380149.979919221 5960143.732550304 0  359533.8454135222 5960172.384722514 0  377147.8814772839 5972649.581024994 0  341756.3455763521 6010124.092444684 0  355615.8176864882 5966311.193813809 0  369144.4338274571 5989807.770003954 0  375185.9047422862 5983510.422041401 0  323455.6100285493 6007641.446150355 0  391856.7960121195 6005888.565703365 0  371978.0245217044 5996361.134308098 0  405920.1480513444 5995895.035784755 0  378877.1880032702 5998073.745937059 0  359056.6617417652 5991643.489540118 0  399278.8743430426 5993436.466134224 0  386116.8775939071 6009922.097099247 0  323455.6100285493 6019387.856515957 0  388994.7833819839 6019826.789191471 0  348897.6207366391 5998116.079250046 0  345456.3301153719 6035064.814295612 0  323455.6100285493 6042880.677247159 0  334124.3013408988 5990072.953472659 0  377097.8989316926 6018059.782440464 0  323455.6100285493 5995895.035784755 0  342871.8474798963 5980154.238874755 0  373596.9793292385 6035659.183886081 0  380149.979919221 6048753.88242996 0  376327.9292813152 6042294.581731233 0  329163.3548105369 6004704.843558955 0  350303.9432136903 6007093.032074522 0  383982.6552804571 6015912.664375832 0  345515.490569988 5988567.439252969 0  379019.812877927 6004678.052169549 0  365541.9137639466 6018750.691894444 0  349225.7781606728 5954782.59950515 0  352493.3399767278 5960815.406895458 0  363683.8130458911 5986976.225872464 0  386666.791301207 5975084.583584332 0  368937.6553346639 5966171.092344863 0  400003.9882214358 5968352.273777306 0  328776.0063842635 5992958.433193355 0  339958.4428758043 5999572.344589042 0  354577.7732363954 6012555.454074449 0  328609.6436549741 6048753.88242996 0  382053.0280278458 5988228.496807038 0  330708.6817934912 5978212.973348036 0  372084.7734679543 5978495.086505585 0  358568.2738174705 5971419.415228934 0  328931.2672829705 5998832.905089681 0  323455.6100285493 6031134.266881558 0  405920.1480513444 5972402.215053552 0  405920.1480513444 6031134.266881558 0  323455.6100285493 5972402.215053552 0  405920.1480513444 5960655.804687951 0  323455.6100285493 5960655.804687951 0  405920.1480513444 6007641.446150355 0  323455.6100285493 5984148.625419153 0  405920.1480513444 6042880.677247159 0  346648.7613474604 5960023.05127712 0  342415.3891593561 5966358.988213831 0  350507.6510228226 5971111.740321856 0  391773.9667214506 5994456.117700323 0  338875.8905424621 6026088.827345025 0  361429.1735454847 6010511.262533597 0  389395.7028803263 6025805.543023561 0  392895.6464692951 6043315.288173481 0  332846.8296575367 6019296.633131165 0  373337.4404588729 6009693.515402478 0  336544.3064612215 6043648.151399015 0  348610.2411382072 6019567.839754772 0  381943.4597763228 6042183.394750732 0  355630.0631288611 6028071.82801846 0  363941.5238882306 6035967.852698964 0  328179.67203552 6022271.326978176 0  401066.2857736665 5998807.415073814 0  344387.1099621175 6029612.545574771 0  393435.2235156003 5960233.556458537 0  400735.9970493424 6022675.638064924 0  393708.5772019727 6029179.837160029 0  400609.0696943338 5987857.851798974 0  361753.6614662939 6001152.171757337 0  400766.1144249197 6048753.88242996 0  353363.0524357285 6002630.165620538 0  343248.328463803 6018790.640008039 0  356419.8105951758 6043365.392189237 0  390234.385899412 6000759.497967276 0  368336.1168551637 6000220.532318851 0  328609.6436549741 5954782.59950515 0  387520.8298169724 6035372.992507171 0  400588.0280660195 6035823.299583429 0  329021.6598427091 6043194.252697862 0  393371.710206733 5983576.325812268 0  393638.9721728675 5973623.513063556 0  371727.9212466564 6017113.044457142 0  364687.2762977295 5959941.212693035 0  374995.9462927962 5960346.83186599 0  369841.9126663716 5954782.59950515 0  400766.1144249197 5954782.59950515 0  338917.7109078234 5954782.59950515 0  369841.9126663716 6048753.88242996 0  359533.8454135222 5954782.59950515 0  390458.0471720704 6048753.88242996 0  338917.7109078234 6048753.88242996 0  390458.0471720704 5954782.59950515 0  359533.8454135222 6048753.88242996 0  380149.979919221 5954782.59950515 0  349225.7781606728 6048753.88242996 0  339867.4956514095 6005339.817053361 0  333737.9460226952 6002130.523287664 0  336955.8140048417 6012008.440073739 0  377097.8989316926 6023232.32559834 0  371748.9790486701 6028016.629988787 0  338146.5171983215 5993298.164761053 0  355016.8390227688 6017610.913088997 0  393953.1528190996 6018968.416019509 0  335185.8133477239 5965142.63403323 0  328616.6041642396 5967263.80307608 0  380314.9487662361 5965460.362415641 0  354622.8993466098 6032976.142863722 0  328521.4725131759 6027215.026914048 0  334465.0783479523 6034070.534389696 0  328123.6212682287 6009699.206425843 0  381889.5169855529 5973936.741901617 0  359122.3484437474 6036790.002992895 0  386341.6533148278 5979963.279841923 0  400798.2159679119 6012477.871311778 0  388538.3765260249 5967461.292146791 0  340833.8784183678 5975728.708105717 0  355307.6239213505 5988552.151815021 0  362181.4274823388 5981261.937800813 0  353784.0322742948 5981044.538811012 0  358045.1698423899 5978741.391518688 0  328423.7350325213 6036912.015930048 0  366897.6876966125 6027277.723668203 0  347355.1745641421 5978532.307510624 0  376820.5060332146 5979033.270735624 0  349378.1778589479 6024378.632814493 0  327189.2282939323 6016451.253924556 0  338433.8773236172 6036753.902881841 0  350141.9760340559 5987605.90026687 0  363794.7083927878 5991713.491814731 0  350325.1285660182 6035273.515460094 0  382355.9358007369 5983507.499638396 0  327107.0747437811 59811
[...]
<PointData  Scalars="f_50-1"> 
<DataArray  type="Float64"  Name="f_50-1"  format="ascii">6.6873398097400899e-30  -5.7091764673499928e-27  4.7054604451352789e-23  3.3586029444437814e-27  -9.4173795008354088e-18  -2.4153777911387893e-22  8.2681713325878303e-23  -4.1947846288022574e-23  2.5722965646375011e-08  1.4434304058454927e-24  -6.3498818377890004e-16  5.2833096956916971e-19  -3.3288314051454105e-24  1.3351872293100545e-16  5.7276358505369305e-24  1.1455643238570307e-21  1.4822990867239677e-21  7.1634985322755174e-17  3.4535267197184295e-13  4.8249645866856757e-12  1.5587467751104470e-16  -3.0523251341336966e-24  -1.7127687664123261e-23  -2.2225968379149838e-18  -8.6069902114031418e-22  2.0535867003678969e-11  4.1978654695414646e-18  7.0957173086105082e-14  -2.1570130858998162e-19  -1.2020577177414337e-20  -7.8952922117682609e-18  5.2665008551343953e-24  3.3573290334138242e-23  9.3100342311790518e-19  5.1280839743694149e-20  6.7066717188926516e-20  1.1594175111264806e-12  1.7390036984701641e-13  4.5534205096654319e-08  -3.0453555361161740e-16  -1.6540770349658935e-12  -2.0449161577326084e-20  -7.9035211945779003e-25  -5.5143617452241543e-24  1.2701142510673153e-20  1.6519209381853352e-25  1.4023721080049851e-27  2.6097892092394893e-18  -2.8984641348481669e-23  2.4225894381732911e-19  -7.1178652642527639e-21  -6.3099586810087698e-20  -1.9349267812621884e-19  -3.2309092008260056e-16  1.6462298603172013e-12  -6.1441304292624965e-09  4.7284444093159812e-14  4.9949310481064457e-22  8.5010760953840488e-25  -1.5953539602125689e-24  5.6125532500443348e-24  -3.9949085991093469e-22  -2.4406452845130025e-24  4.4728027582587054e-23  -2.9127221071806153e-19  -4.4103342392758226e-15  3.2996920084009547e-15  -1.4861773446037755e-16  1.3287373029982477e-13  1.5406364942881445e-15  1.2046876555889506e-20  -1.1375149405026913e-17  7.4655041258197142e-16  -5.8537667774659964e-21  -5.8827517420600425e-16  -7.9139654631053455e-17  -2.0637298544288356e-18  2.5283162147984682e-25  -5.1856621129930154e-19  -1.8291675413826921e-21  -1.2422132486787470e-23  8.6273145394268998e-11  1.2999569405642616e-18  -4.0659512952839421e-14  -8.5538456823888886e-19  -4.1252943087533422e-23  -1.4709400556660681e-22  7.0423408682488843e-20  -1.0710180351615584e-24  1.4062830790180470e-18  -5.7014143281396362e-22  -1.6808802012468496e-19  8.3647360555640623e-22  -6.9458843303356854e-18  -5.7275248855058715e-19  3.3222483797473503e-18  5.8423459267669671e-09  5.4143537258605660e-21  -1.6000058931169731e-23  -3.1951292959396366e-21  -1.1519002557457370e-15  1.0978176206572907e-11  -8.7929190147109333e-13  -6.1201194238450388e-24  1.8155859062781647e-21  -2.6962966915524463e-17  -1.9659944062755096e-20  -1.7614326501656765e-18  -3.4113835577228022e-22  -4.8392498240764843e-20  -4.5851740365653242e-20  -1.4762407042929110e-21  6.7673827920498395e-16  1.5515448859332063e-17  1.7125752535242292e-19  1.2076165820780886e-10  4.5071456164128387e-12  -8.0800049866548002e-23  3.0984687232454924e-15  4.1307383037249439e-07  1.1487993215968379e-17  4.0983165166387939e-09  8.7427413335030225e-11  3.7868573946173696e-16  6.3856252271703447e-14  -3.9850125129350031e-24  -5.0790117048402636e-18  -1.5215633718968710e-14  2.2503564259097564e-21  5.4421733508330638e-27  -1.2489757069351361e-19  5.8523814723504226e-13  4.6600022427047139e-23  2.6453401085759587e-18  3.9058185726704646e-20  -1.2196311227054400e-23  -2.0418309653059832e-22  5.7528751027285662e-21  5.4108737365691584e-15  2.4723033538759660e-15  4.9513973349176652e-16  -6.5996985589452513e-12  2.5631291776056785e-14  -3.5253208905221374e-24  -1.9845487540980975e-22  7.2999143909882298e-12  1.0609264883755123e-14  2.4194687367213620e-18  3.5396099432723603e-20  3.4099515347515329e-21  -3.8862274502128585e-17  -2.4943209970711895e-15  -1.5245010568256404e-28  2.8110179020698101e-10  -8.2145196533199610e-22  -2.1843968006861452e-15  -1.2673730420089110e-17  -6.1101696170578561e-21  6.3278315043262022e-26  6.9857021645695618e-20  7.4311730757478620e-23  2.5911609613284915e-24  -1.7526386648123168e-22  7.4461549977540643e-27  -7.8049780360191488e-19  -1.0043079457488087e-22  -5.8143255648025013e-25  1.7932226320430897e-22  -7.6267636561452109e-21  1.7591355842782223e-18  4.8468862962061479e-13  -8.1135802667056934e-21  9.5774648345128083e-12  1.6776478076569823e-19  -4.7564283349775542e-24  4.9149048054682048e-22  1.7061437590851764e-10  1.2653844628755643e-25  2.6394511211039266e-17  3.8594072100730752e-22  1.0521597750952279e-17  1.3621116693827109e-20  -8.0061097297825906e-26  -4.8319149479711117e-17  3.8426812952302342e-20  2.6894524959819872e-20  3.1612741855299968e-21  -5.2527208037712387e-20  -1.5559957638277693e-16  5.6616200518598115e-09  -7.9413856456854788e-26  -7.3427064765696574e-14  2.4987949334454162e-18  -7.5201122691122400e-23  1.2824621317789748e-13  2.5750918890801291e-05  -9.6497202483722035e-26  2.2049679194908651e-20  -1.6743262756662038e-22  1.4450339293726050e-27  -1.3784431683831540e-16  9.0022312235624037e-17  5.1098889912129588e-14  1.7759039555559282e-20  -1.7483474655189446e-20  3.8937522682924117e-22  7.5104215715275305e-23  6.8345978995424580e-24  7.4993681590766999e-23  1.3022776755133762e-22  7.7275055484529689e-24  7.2707246896642588e-26  1.4695894994657909e-21  5.1301389525820226e-24  -6.2474080491086588e-22  -1.7672804868885763e-23  1.6164605584878633e-17  -7.5839392972376674e-20  -1.7207361833655087e-19  7.5202872614815347e-16  -2.6060651148049079e-17  -6.1677070552574927e-18  4.8903251388176174e-15  1.4397851742113298e-18  -1.4287326872142672e-22  -2.0328804498970221e-25  2.1176480816401731e-19  8.1656109763729606e-19  -1.1479663605541752e-23  -2.1110723385853420e-23  -1.5618944775743745e-21  -1.3007028605630563e-15  4.7474277777706954e-20  -9.5699416375316192e-14  -2.2334243284973004e-18  9.0946168733379850e-18  1.9399689548520737e-19  1.0398193085985721e-12  3.2726973586213910e-14  -1.1052106659657862e-15  -1.1392067073304949e-15  -1.4335315330609691e-25  9.5030682440672965e-17  -3.9242153200051867e-17  -2.1798791381546690e-14  8.6573276699826283e-18  -5.8073910166812648e-23  1.0391920018476756e-23  6.6378702954612563e-15  6.7785998887022124e-10  -7.8166751605364312e-21  1.6291476606676700e-11  1.6008483146594137e-22  -2.1223663061828467e-19  7.2386125346707080e-22  -2.7339602091202143e-09  1.2498513017814644e-17  2.1861188643240111e-18  5.8870816938613095e-14  4.3302833319845202e-22  -1.1506663129395166e-21  2.2026183437868151e-19  -5.6568573512852714e-23  7.1263138112595937e-22  -3.8805253602482577e-16  1.1194260736343952e-11  -1.0568332573263124e-22  1.8044473300530249e-11  -2.9297798429567885e-20  6.7024429165287061e-16  4.4071898860121249e-14  5.6088034594543404e-09  -6.5921867397910457e-16  -1.3346777286137149e-19  3.6306405486834086e-15  6.0110146153097821e-17  -3.5866976190386059e-16  -3.4391274915064362e-16  1.0524388218778442e-12  2.8490750271261374e-17  6.8174484032714788e-18  -1.8289241851497462e-17  1.2373801670175283e-15  1.5425487483426007e-12  -1.6673159618886734e-12  -1.8185116313256789e-22  5.0094545708153307e-16  -1.2399525724062103e-24  -1.0594683413918638e-19  4.1401823483432244e-16  3.2314716606585354e-18  -3.0629808106929762e-17  3.3157189384081839e-23  -1.9487740797199233e-17  -4.5032412608021568e-19  6.0069833282111311e-11  -1.2607609412377198e-19  3.0929621512397606e-24  6.6264023506986536e-23  4.4514772660209395e-14  5.2106263038142839e-20  5.9530337950411999e-19  -2.3380302144093216e-23  2.7457222102598383e-18  -7.7171341548391231e-25  -1.2462318618191488e-24  -1.7542035380795058e-25  2.1300991231932385e-08  2.1636730110964494e-22  6.7240925554741457e-12  -2.4912050740473527e-22  -1.0995798625267157e-24  1.5425360201297763e-20  3.0636508145627365e-19  7.7287520399417413e-20  -9.6463123967223383e-21  1.8367890326898364e-16  -3.6739256648020014e-19  4.9899308398222873e-21  4.1618044004743646e-21  -5.4270217749144289e-20  3.8352906754674811e-13  -3.9058022987430525e-12  -4.1957107070141948e-12  4.7189820473599159e-22  -2.1546773443542676e-17  -4.5652434410453355e-20  -9.0587531766624341e-26  -8.3537687261802267e-25  1.6078020439369752e-18  -1.0504874352120365e-19  1.5654163434485213e-18  -2.7619616575965988e-19  1.0187968437700304e-21  -9.8289051062799624e-21  -4.5758940618675565e-21  1.2847813029446464e-10  -2.0428910045763620e-17  7.2645142987163819e-20  -9.7274450233792190e-16  8.6070066961428736e-11  -4.5556846191990750e-11  1.0184798756739090e-07  3.6694077744728221e-08  3.7000667968793613e-22  -6.3950878517388259e-14  -4.1193982005133350e-17  -1.5291001666792411e-19  2.2732371819351940e-18  1.7485110358992088e-17  1.7701001903532418e-28  -3.7049891816470446e-26  8.4010400487921795e-15  -5.6776954946365079e-21  2.0678820522986100e-20  3.4658961262456704e-12  -2.2455645213968660e-21  4.5773353483463641e-14  1.2728429654182457e-21  2.4189868437845372e-16  8.9103978958752200e-16  1.3116586319910403e-22  -2.5898168670912250e-25  4.5278267309784461e-10  -1.0889379567476725e-14  -3.3918772503045713e-19  1.8595809725724547e-19  4.0643935851465005e-19  4.7601097162341511e-27  -1.4438471365223273e-23  -1.2022741501936747e-23  4.5171989608026679e-11  5.6098847633299534e-17  5.2511596506537091e-22  6.9410208095198631e-21  -4.2254764551093540e-20  -1.3572528788874370e-19  -3.7335531857056275e-21  -3.4657658134872411e-21  -3.6749921773213437e-15  1.1985921695596926e-13  -9.0048468333681022e-20  -1.3943925622034339e-22  -5.2782164237255687e-20  -2.2654978828604683e-16  1.0857348019813179e-21  2.7778803419772610e-19  2.2481645542057426e-11  1.3610174312317442e-16  -2.0517753092467306e-18  -2.8622849831442040e-21  1.4538707181904458e-21  1.1900153971007483e-24  3.8183625452032941e-19  -5.8671949677747642e-12  -3.1523686543387347e-18  -2.3490651239372914e-20  1.7452772003665961e-17  -6.8268672066490435e-20  3.1370883185484425e-19  2.9983333203618895e-17  1.7452310504007530e-17  2.2629429979066125e-22  1.1933800466638285e-19  2.0361912100702914e-13  2.1352919804050065e-14  1.8162144995249728e-15  4.3111672481450501e-14  7.0342394461707210e-12  1.9541566746486263e-16  2.2850685371906651e-16  -2.7503472808839256e-21  9.0023768258762542e-21  3.9818544824676014e-13  -6.8884923771407939e-25  2.0730191229442166e-11  6.9804107230998670e-06  -2.2419238428903248e-23  2.9980841186256404e-21  -3.3134779575832433e-15  2.3631550393698063e-18  1.9532883293588107e-13  4.9879523162605337e-21  -5.2855305009839377e-24  -2.7957870577043977e-23  6.2662624910718724e-24  -7.8591914840670051e-22  1.5008004632451152e-16  -2.2581686429975066e-17  -2.0441660015141742e-19  -4.0900947079353151e-18  -7.5200123570580374e-23  6.3735071555920957e-13  7.8000688337518377e-14  -2.2631893541980795e-13  2.1778123496575191e-17  -1.6923976905169309e-20  2.1502477792607987e-17  -8.1063466391432735e-14  -9.9279440804416495e-15  1.9647668121622517e-11  3.2908795763882268e-17  -5.8118548948497928e-19  -4.7478821673346348e-07  1.8063482509372793e-23  2.8589360136774852e-17  -3.0587863180306469e-17  1.3358454377681591e-16  -1.0903532411322885e-20  -3.1615333792494520e-19  -1.1563920020023339e-22  5.9856340895288808e-05  1.3100012928136646e-13  -4.7698630534120970e-20  -4.1358935781313822e-15  -1.1587624411219823e-17  -8.4444007990902694e-24  -3.1977586760660819e-16  -1.2280701251197092e-19  2.8076402856103743e-12  4.1919628327490658e-20  1.2649520264228257e-21  8.2658087483805945e-20  -1.7523099217393999e-18  -1.2134355703360468e-23  -8.3574946434978768e-19  6.1156948988202201e-22  3.8456769948814738e-16  9.4541374244157690e-18  2.6266072628475922e-15  -2.1124905506541304e-21  -1.5648684205189390e-16  -2.4030752518853692e-17  -1.1375378793565130e-24  7.3057492292824056e-07  3.3384756689929732e-21  4.3401471276695531e-18  -4.3148445988121562e-19  4.0196561878112454e-14  4.1079283810160001e-14  -1.1236489528422693e-22  6.6851494990653975e-18  1.1820637521461871e-10  -2.9059964202315794e-21  -2.0287490846810394e-18  5.9369198826279526e-18  -8.2531554900707546e-19  -4.0077077780999529e-22  -9.5323985666215138e-19  1.0281157610485416e-12  -7.4863882884835553e-07  9.1615446528809992e-18  7.4449296540990904e-17  -8.7321241288273189e-27  3.7240541242572878e-18  -4.9155988720707199e-17  -2.9562937328796024e-14  -3.0200945308627038e-22  -1.4223535405273945e-21  -2.5104194113775968e-22  3.8593620912956536e-15  -8.5879338263038369e-25  -1.1870928508729406e-24  1.2346317370351347e-24  -8.5773381182354099e-23  -3.3495738487138686e-15  2.5763323561108817e-13  4.1467156653281798e-17  -1.4445856428145355e-22  -1.8809324926174305e-15  8.7293571979360237e-21  -1.5251639706082599e-15  -1.4331016369726286e-21  -9.4879880584351815e-13  -5.7381261771708442e-14  3.6121285423386118e-16  -1.6304335535241135e-17  4.0876309011422020e-16  4.9849914769237948e-16  3.4952411145986915e-10  -7.5390348446545846e-11  -5.7859508199724290e-12  5.1411693369038481e-16  1.4280470332359955e-21  2.9988912445528214e-10  6.1939888388098715e-24  -1.5282931496958398e-21  -9.2181677537227568e-22  1.5166078570872358e-22  -7.2559475399610953e-22  -7.9001517089522776e-21  -7.4263580984285081e-26  1.9005115537461895e-14  -1.2735800796010750e-21  -1.6451533307497387e-24  -2.0729859690635429e-23  -4.3789657438283395e-21  -5.7014729149281616e-20  -1.1877690253577115e-17  -8.9092066761007591e-27  3.4494720254522941e-26  6.6140016266734340e-21  2.3358570740766651e-28  8.3427918022686703e-13  3.9434964879341019e-13  -1.8345555599857687e-14  1.6094512144755968e-12  -1.1439095922702963e-21  3.3994372513466950e-11  -6.5871966417236031e-24  -2.7794709058903548e-16  1.2704541351220432e-19  1.5961965253302499e-18  4.1707353196718298e-18  1.5616249223511942e-18  2.3599074638434141e-14  2.3146263909197569e-24  9.9736308356871639e-25  -1.8375497214104231e-22  -1.9912563009295495e-24  -1.4267514213235625e-22  3.7108139687179742e-20  2.7793019275733370e-14  7.7561220633446805e-19  5.2710661045814118e-25  1.5298834489455565e-16  -5.3244063444481510e-17  -6.2183597036335379e-17  1.4021675831224630e-12  1.0753844161886248e-17  7.8582004231106827e-23  -3.5861605032672480e-22  -4.5688656551213403e-23  -4.5430544353528639e-20  -7.3939871517306547e-20  1.3522786308611922e-20  8.6274899328364892e-22  6.7910093991918391e-21  -2.5670558383713533e-18  3.3468105125388474e-20  -8.9890257194092898e-23  -4.8881693135042011e-08  4.6909853487100812e-09  -7.9784717073575223e-17  -1.3898042499033324e-23  1.1436062204930226e-21  -1.1853285563385917e-20  5.2523652647240341e-21  -5.6510507241963609e-26  -1.7545980810011623e-22  -4.6052114358878786e-26  2.0172375151659844e-10  2.2467427761498140e-10  -1.0286533767270937e-19  -2.7535763948399823e-18  -1.8887869773241925e-17  -2.3448690606296063e-23  -2.7609798720512366e-24  4.1274934622503716e-20  -2.1654946788131405e-14  3.3814597873943495e-16  -5.5060468105787546e-13  1.2662036704846064e-17  -3.5798447956953348e-14  9.7685300809681495e-13  1.3479091605085666e-10  -1.0950814151557065e-18  6.2945457520962218e-20  -2.7970516528678860e-20  9.6311262094187643e-21  1.5850280851758726e-20  4.3488078174355294e-23  9.5798264792105987e-20  -7.7438717505035719e-24  4.4952438467651745e-24  -1.8649079483447204e-19  -2.8252359640836329e-22  -7.9643661533194537e-22  3.4440208746088397e-26  3.9209264738196799e-24  -1.5652248378119698e-18  2.1654396821515447e-23  2.5101636054182034e-18  -2.5724566805238380e-20  1.0976167831176739e-19  2.5548799575196323e-22  4.4893931598153678e-14  7.3409887085378593e-18  3.1979341172130492e-17  -2.8322830536134760e-19  2.3331733268788540e-23  -2.6626199017204415e-23  7.3082515080508982e-23  5.0256703578809869e-27  1.3207920749554984e-24  -9.9630105695623311e-26  -8.1974380702350770e-19  3.3174216148990860e-15  -3.6158226035693098e-21  5.1968228646850280e-20  1.6032749573783583e-14  4.0470343767170581e-15  -1.6626663492150048e-18  -2.6025377750015746e-18  -7.5589105776984617e-17  5.5667440624410469e-18  -6.1000559679913214e-19  2.7321607836999588e-22  5.6914216678711246e-23  -8.3107314133319190e-20  -1.5457949628989186e-20  2.9899289448008299e-21  -2.0662759235289269e-22  -6.7388312231002131e-12  -2.0229779765274330e-17  3.0213257128384673e-22  1.7560286596710458e-13  -1.3131251436569756e-19  1.3430626705822564e-18  -2.2774821835655862e-20  5.1166258857785187e-17  1.3558442780941963e-09  -1.1612137111112671e-27  1.2427308941746429e-27  7.4641774489105935e-14  -4.4003217851314948e-26  -3.2635843483614587e-21  2.8803202192929800e-11  -4.4250295226790543e-09  -1.5545185554234958e-09  3.9265794369439037e-23  -1.0652783178759607e-21  -3.4201304004644587e-10  -8.4400359016015568e-16  -1.4819800211945283e-24  1.9942765240088817e-09  -4.5964614212825755e-22  -3.8326842523852719e-27  -2.0466439323100584e-19  6.8549011936845497e-24  1.5476158236021406e-20  -2.6997364291608375e-17  -1.3776642243587445e-22  -1.1753056015859969e-17  1.2490937137952662e-22  -2.6414595012422819e-12  -2.8770552761553584e-16  -2.8500396900044348e-09  -3.1929878956196871e-16  3.9385875411501237e-22  3.9013320189120354e-12  3.5073844265842959e-19  -1.5913675061324599e-17  -2.0351979090015839e-23  8.8430075149146076e-19  7.5977878988851284e-22  3.2260633354394338e-23  8.9410004112512950e-17  -2.5634759263215097e-17  6.5517212907297578e-23  -3.5950590575889745e-16  -3.2514569619171158e-13  3.4317240973978720e-14  5.9555992801359909e-12  2.1293333019438070e-22  1.6512235868969832e-20  -1.2646346202700474e-17  1.8082391302295493e-18  1.4394535530207526e-12  4.4873953429186354e-21  -9.3612532358919556e-22  -2.8421599332571438e-21  2.9409953143223022e-21  -9.2296957143365092e-20  7.4983113880566172e-23  6.7042051301918138e-23  1.6122897054845819e-07  1.4900001671188093e-09  -8.1838071563465101e-14  -1.8774455585442544e-12  1.1754552688428440e-13  8.0499623829080168e-13  8.8837392155988907e-14  -1.4033798966521026e-17  2.2856633679566258e-18  1.0735030869761452e-14  2.2830911531910773e-23  1.9665578636668964e-18  1.3548018635374248e-21  4.9553030956622714e-14  -4.4466047230889135e-15  -4.4095268628950275e-15  4.9749355227336845e-13  1.7728503026003824e-23  3.1683384964939910e-24  -4.5442988217618699e-16  -7.9265602046084268e-19  3.7110917701559525e-19  -5.4515213525971954e-22  7.0760708373297584e-22  -5.3810235208713434e-16  -7.0099483272495867e-16  -2.6459449725851568e-23  4.9093413081579182e-24  4.9320102881887481e-21  3.8985601881616222e-17  -1.7371687179279031e-17  -1.5205385664170648e-17  1.5309300638924368e-17  1.1749099603619138e-13  1.1751333631609567e-17  1.0932584706237038e-13  4.1391953005957439e-26  1.4871309763703685e-22  1.0501536352797507e-21  -4.2966797231554304e-20  2.4150802921225413e-19  6.7806352714996159e-24  4.3271205186547629e-25  -8.0009912247482380e-25  -3.1863554903616499e-24  3.0432689543241338e-17  -2.8660886723472486e-18  5.8651266637580074e-18  4.0971539550697148e-15  -2.6095356262607786e-15  4.6348262585274386e-16  2.3292090800409623e-21  -4.9079951827274240e-16  -8.9828542460651960e-21  3.8323880727277144e-14  1.3246905824535608e-24  -1.2830585165707076e-21  -1.8540741588245817e-21  -2.7454398326693313e-21  1.2457667262303693e-20  -2.0198581685860696e-20  -7.4269492622538339e-20  -2.0935691690757893e-19  -3.1798503582999916e-19  -2.1542206444850569e-19  2.7552214636373402e-17  6.1785555788360335e-24  -2.1659069870167291e-29  -2.3160269343034483e-22  -1.8599489118269542e-21  -1.3145752500238016e-25  1.3879383613930770e-22  -3.0561173383656909e-24  1.0907097500264743e-23  6.9877686951430326e-23  -4.1765487482249363e-22  -6.4203025058706629e-23  8.2854783825139616e-23  3.1332444712645242e-22  4.4196797069614171e-26  2.6749559620585416e-23  1.3808901709214614e-25  -7.1182249361824493e-25  1.2824869961984675e-22  7.4752287856802158e-09  1.0109612150930570e-14  -1.5917943013225227e-15  3.2713560248944607e-17  5.9242302028127691e-23  6.0534154671499187e-24  -7.7656620593034755e-22  -7.5548411301989925e-27  6.5058766095233813e-13  9.1612258475323953e-19  -9.9596926962877892e-23  -6.4018817847707933e-13  1.6700711560000871e-23  -2.9631648420545332e