<?xml version="1.0"?>
<VTKFile type="UnstructuredGrid"  version="0.1"  >
<UnstructuredGrid>
<Piece  NumberOfPoints="3002" NumberOfCells="5870">
<Points>
<DataArray  type="Float64"  NumberOfComponents="3"  format="ascii">323455.6100285493 6048753.88242996 0  323455.6100285493 5954782.59950515 0  405920.1480513444 5954782.59950515 0  405920.1480513444 6048753.88242996 0  405920.1480513444 6001768.240967555 0  323455.6100285493 6001768.240967555 0  364687.8790399469 5954782.59950515 0  364687.8790399469 6048753.88242996 0  364687.8790399469 5996367.117560402 0  323455.6100285493 6025261.061698757 0  382226.6271443229 6022560.499995181 0  405920.1480513444 5978275.420236353 0  323455.6100285493 5978275.420236353 0  353897.8957397301 6022560.499995181 0  344071.7445342481 5954782.59950515 0  385304.0135456456 5954782.59950515 0  405920.1480513444 6025261.061698757 0  354379.8117870975 5975574.858532775 0  381582.8168806895 5978840.396198289 0  384950.2598624413 6001768.240967555 0  344643.0480768835 6003429.02033719 0  344071.7445342481 6048753.88242996 0  385304.0135456456 6048753.88242996 0  339717.0321562298 5986078.187627405 0  337515.036058786 5969821.016310448 0  368062.2614420265 6013076.224998265 0  368062.2614420265 6032044.774992097 0  393987.6142659165 5988729.699941677 0  405920.1480513444 6013514.651333156 0  392856.2821527076 6034589.119828064 0  393514.9611654527 5968369.338068204 0  339399.8087404341 6032061.482581838 0  323455.6100285493 6013514.651333156 0  374995.9462927963 5965504.865595459 0  354379.8117870975 6037976.901948514 0  338123.9088969378 6017031.529131207 0  367397.3120126425 5982072.559192053 0  351882.5752379905 5991998.990225234 0  376945.425450199 5991232.708824487 0  392265.0061656896 6013300.936254065 0  357029.7426706699 6006608.947964352 0  380093.6207558212 6036880.127749795 0  323455.6100285493 5966529.009870751 0  405920.1480513444 6037007.472064359 0  405920.1480513444 5966529.009870751 0  323455.6100285493 6037007.472064359 0  333763.6772813987 6048753.88242996 0  405920.1480513444 5990021.830601954 0  323455.6100285493 5990021.830601954 0  362879.3643765316 5966837.319094267 0  348367.6438548031 5965604.161682394 0  334493.1989038612 5996935.948935225 0  395068.5043068817 6023875.372615605 0  348216.0324377587 6013504.844950221 0  379305.9090074943 6011603.390019651 0  372523.5158233726 6003480.000732267 0  395435.2039568929 5999384.346358113 0  395612.080798495 5954782.59950515 0  333763.6772813987 5954782.59950515 0  395612.080798495 6048753.88242996 0  374995.9462927963 6048753.88242996 0  374995.9462927963 5954782.59950515 0  354379.8117870975 6048753.88242996 0  354379.8117870975 5954782.59950515 0  335074.5981535012 6007206.680367459 0  391925.2695590468 5978591.908877409 0  371969.1707190623 6022560.499995181 0  383872.162544519 5969415.106147043 0  358038.7139835292 5984533.09712744 0  369699.869182786 5973102.2359358 0  369841.9126663716 6041099.453006387 0  343176.7440329155 5994428.220622956 0  362933.5332293962 6024385.235173292 0  330640.1760208776 5984148.625419154 0  348684.7494355051 5983110.856817525 0  399094.9690929834 6007537.420809742 0  345447.6324516311 5974162.84917082 0  332859.7749513451 6039150.972778062 0  344517.044630671 6024057.945416138 0  332973.1214415312 6025037.914505113 0  341428.0126373461 6040493.820728126 0  385874.264691618 5992757.40885039 0  350337.3662538711 6030387.535304286 0  359887.2373602368 6016186.250094838 0  377097.8989316926 6029115.217702097 0  338917.7109078235 5961484.016839475 0  329495.5261590715 5972402.215053552 0  336644.7280634616 5978216.610794215 0  330688.6715098422 5962480.256438018 0  359899.8039476132 6031963.415584587 0  399746.255941904 6030426.523907755 0  385511.6875144855 6030368.508996127 0  387377.735783329 6040763.821024337 0  398832.192399829 5974431.100387635 0  387992.9498994246 5962432.032572681 0  405920.1480513444 5984148.625419153 0  364925.7641745284 6005782.953640081 0  361769.877068089 6041226.651684469 0  398452.9199001931 6040850.732439541 0  398946.6205243983 5962252.502309519 0  362305.5577564609 5975984.89789681 0  356822.8065216601 5998470.186307689 0  386900.7115926162 5984820.732438302 0  329528.0119279922 6032067.230024892 0  331139.6939744562 6013813.572928222 0  398457.5876798834 5982541.698799337 0  405920.1480513444 6019387.856515957 0  398685.5166750694 6017257.578706384 0  348587.9424884976 6042755.309150081 0  369841.9126663716 5960143.732550304 0  380149.979919221 5960143.732550304 0  359533.8454135222 5960172.384722514 0  377147.8814772839 5972649.581024994 0  341756.3455763521 6010124.092444684 0  355615.8176864882 5966311.193813809 0  369144.4338274571 5989807.770003954 0  375185.9047422862 5983510.422041401 0  323455.6100285493 6007641.446150355 0  391856.7960121195 6005888.565703365 0  371978.0245217044 5996361.134308098 0  405920.1480513444 5995895.035784755 0  378877.1880032702 5998073.745937059 0  359056.6617417652 5991643.489540118 0  399278.8743430426 5993436.466134224 0  386116.8775939071 6009922.097099247 0  323455.6100285493 6019387.856515957 0  388994.7833819839 6019826.789191471 0  348897.6207366391 5998116.079250046 0  345456.3301153719 6035064.814295612 0  323455.6100285493 6042880.677247159 0  334124.3013408988 5990072.953472659 0  377097.8989316926 6018059.782440464 0  323455.6100285493 5995895.035784755 0  342871.8474798963 5980154.238874755 0  373596.9793292385 6035659.183886081 0  380149.979919221 6048753.88242996 0  376327.9292813152 6042294.581731233 0  329163.3548105369 6004704.843558955 0  350303.9432136903 6007093.032074522 0  383982.6552804571 6015912.664375832 0  345515.490569988 5988567.439252969 0  379019.812877927 6004678.052169549 0  365541.9137639466 6018750.691894444 0  349225.7781606728 5954782.59950515 0  352493.3399767278 5960815.406895458 0  363683.8130458911 5986976.225872464 0  386666.791301207 5975084.583584332 0  368937.6553346639 5966171.092344863 0  400003.9882214358 5968352.273777306 0  328776.0063842635 5992958.433193355 0  339958.4428758043 5999572.344589042 0  354577.7732363954 6012555.454074449 0  328609.6436549741 6048753.88242996 0  382053.0280278458 5988228.496807038 0  330708.6817934912 5978212.973348036 0  372084.7734679543 5978495.086505585 0  358568.2738174705 5971419.415228934 0  328931.2672829705 5998832.905089681 0  323455.6100285493 6031134.266881558 0  405920.1480513444 5972402.215053552 0  405920.1480513444 6031134.266881558 0  323455.6100285493 5972402.215053552 0  405920.1480513444 5960655.804687951 0  323455.6100285493 5960655.804687951 0  405920.1480513444 6007641.446150355 0  323455.6100285493 5984148.625419153 0  405920.1480513444 6042880.677247159 0  346648.7613474604 5960023.05127712 0  342415.3891593561 5966358.988213831 0  350507.6510228226 5971111.740321856 0  391773.9667214506 5994456.117700323 0  338875.8905424621 6026088.827345025 0  361429.1735454847 6010511.262533597 0  389395.7028803263 6025805.543023561 0  392895.6464692951 6043315.288173481 0  332846.8296575367 6019296.633131165 0  373337.4404588729 6009693.515402478 0  336544.3064612215 6043648.151399015 0  348610.2411382072 6019567.839754772 0  381943.4597763228 6042183.394750732 0  355630.0631288611 6028071.82801846 0  363941.5238882306 6035967.852698964 0  328179.67203552 6022271.326978176 0  401066.2857736665 5998807.415073814 0  344387.1099621175 6029612.545574771 0  393435.2235156003 5960233.556458537 0  400735.9970493424 6022675.638064924 0  393708.5772019727 6029179.837160029 0  400609.0696943338 5987857.851798974 0  361753.6614662939 6001152.171757337 0  400766.1144249197 6048753.88242996 0  353363.0524357285 6002630.165620538 0  343248.328463803 6018790.640008039 0  356419.8105951758 6043365.392189237 0  390234.385899412 6000759.497967276 0  368336.1168551637 6000220.532318851 0  328609.6436549741 5954782.59950515 0  387520.8298169724 6035372.992507171 0  400588.0280660195 6035823.299583429 0  329021.6598427091 6043194.252697862 0  393371.710206733 5983576.325812268 0  393638.9721728675 5973623.513063556 0  371727.9212466564 6017113.044457142 0  364687.2762977295 5959941.212693035 0  374995.9462927962 5960346.83186599 0  369841.9126663716 5954782.59950515 0  400766.1144249197 5954782.59950515 0  338917.7109078234 5954782.59950515 0  369841.9126663716 6048753.88242996 0  359533.8454135222 5954782.59950515 0  390458.0471720704 6048753.88242996 0  338917.7109078234 6048753.88242996 0  390458.0471720704 5954782.59950515 0  359533.8454135222 6048753.88242996 0  380149.979919221 5954782.59950515 0  349225.7781606728 6048753.88242996 0  339867.4956514095 6005339.817053361 0  333737.9460226952 6002130.523287664 0  336955.8140048417 6012008.440073739 0  377097.8989316926 6023232.32559834 0  371748.9790486701 6028016.629988787 0  338146.5171983215 5993298.164761053 0  355016.8390227688 6017610.913088997 0  393953.1528190996 6018968.416019509 0  335185.8133477239 5965142.63403323 0  328616.6041642396 5967263.80307608 0  380314.9487662361 5965460.362415641 0  354622.8993466098 6032976.142863722 0  328521.4725131759 6027215.026914048 0  334465.0783479523 6034070.534389696 0  328123.6212682287 6009699.206425843 0  381889.5169855529 5973936.741901617 0  359122.3484437474 6036790.002992895 0  386341.6533148278 5979963.279841923 0  400798.2159679119 6012477.871311778 0  388538.3765260249 5967461.292146791 0  340833.8784183678 5975728.708105717 0  355307.6239213505 5988552.151815021 0  362181.4274823388 5981261.937800813 0  353784.0322742948 5981044.538811012 0  358045.1698423899 5978741.391518688 0  328423.7350325213 6036912.015930048 0  366897.6876966125 6027277.723668203 0  347355.1745641421 5978532.307510624 0  376820.5060332146 5979033.270735624 0  349378.1778589479 6024378.632814493 0  327189.2282939323 6016451.253924556 0  338433.8773236172 6036753.902881841 0  350141.9760340559 5987605.90026687 0  363794.7083927878 5991713.491814731 0  350325.1285660182 6035273.515460094 0  382355.9358007369 5983507.499638396 0  327107.0747437811 59811
[...]
<PointData  Scalars="f_47234-1"> 
<DataArray  type="Float64"  Name="f_47234-1"  format="ascii">1.6856610498114869e-20  3.3620194626784962e-19  4.4899584032131168e-15  -4.1098651719839194e-18  9.2090477682277332e-08  -5.3395864861975394e-13  1.4547141370149186e-11  3.0262471860199833e-15  9.6568524540015573e-03  4.7417996181674504e-16  2.6019400221706256e-06  4.5560629297192335e-09  -5.7854772639128842e-15  -1.0958984429148664e-07  9.9912534250206533e-14  7.3305712426865640e-12  3.8053209483511520e-11  -4.8164810222935732e-10  1.4338117661729372e-04  1.3648980371334301e+00  7.6350210621651419e-06  1.2710192653969024e-16  3.6487353208013741e-15  -3.7222217491157243e-10  3.5164371952572288e-13  8.7976066418518732e-03  6.6387584782511336e-09  3.9346632694762547e-04  -6.4992514998547083e-10  1.6596900538524884e-11  2.9958363260431380e-09  1.2639064350161709e-12  1.4854008461358985e-12  -3.1941100342869092e-09  5.3602953292704180e-11  4.3845677191858664e-10  -6.8094076720111074e-06  -1.5685095431600836e-06  -7.1698169425555291e-02  1.9643478965574191e-05  -5.4644730775198322e-04  -1.3461962458156289e-10  -5.2303882601004664e-17  9.1416635283041933e-15  9.4258254191741494e-13  -2.0325899853910723e-17  -2.4630979202676803e-18  -1.0240761191269299e-08  -1.4288120584444063e-13  -1.3296021979580554e-09  -1.4095151144746143e-12  1.8766719607886856e-09  4.5924999160122800e-10  7.0422722243063783e-07  1.3870343594652178e-02  4.6389648246850816e+00  1.4570018504626370e-03  -4.2580316122352352e-13  5.5761883967830010e-17  -3.6920769128573055e-18  1.6774465847080321e-14  -1.9134109126488014e-12  -1.8925524892848822e-16  1.3969444782167714e-12  -6.3240419906655936e-10  1.4673183347870134e-06  2.6560479345956565e-06  -1.5969346584157802e-07  -9.1239260496344492e-07  3.2044902038904465e-07  -7.2928763583066578e-13  -3.0772508478262889e-08  5.0467295757021045e-06  1.8075893494464948e-11  -3.4492734569449802e-09  1.3796259126874588e-06  7.5755473040819783e-11  -1.2497741855730695e-16  1.8907321083208273e-09  -1.4350796773816376e-12  3.0941236583487712e-14  2.7346383835071564e-01  1.0193992112304980e-09  5.7808280231420289e-05  3.8772252051252235e-08  2.8464933602547670e-16  -3.1995876741947152e-14  -2.2565004486800489e-12  -4.5638492853243121e-16  -3.1653346192011834e-11  6.0504315677691942e-13  -8.0032554214550845e-10  -1.6460615611927307e-13  6.4677008711787273e-09  -4.5921663750566640e-10  1.5010750019627412e-08  -6.9222003093770593e-02  2.3574394004034708e-12  -1.1646869240795541e-15  2.5196823784887552e-12  1.5907400012250816e-07  -1.2844962174143025e-04  4.5214668944564759e-03  1.5314293513355573e-15  6.7061701278367735e-12  4.8745364703680928e-07  2.5220615551092655e-10  5.8740747418960447e-08  1.3495508813487789e-13  1.4797632583895485e-09  -2.0725506082977709e-10  4.4165372074999127e-11  3.7565527684042586e-07  1.6480946289566049e-07  1.0074907669999548e-09  4.3154620907160501e-03  -1.6088017393548792e-03  1.7860780054551771e-13  2.4990481715343320e-04  3.0023246583407133e+00  2.2715527754075520e-07  4.6866655972942448e+00  3.7842122033980490e-05  2.8220524136967377e-05  2.4382920890048585e-03  -5.0950141671419666e-16  3.2053415322336356e-08  -5.2242378481378633e-07  -6.9332090212415511e-13  -9.1370738595167242e-19  3.4916110947595378e-10  1.6999385114429934e-03  5.1660173741622259e-12  7.6011585312371015e-10  5.2688161140337837e-10  9.7256620779191537e-14  3.5730764036531821e-12  1.2185007822365581e-10  -1.0370441125577127e-05  -3.1030184583226150e-06  3.6480405711686393e-08  1.5605229128500109e+00  1.3147195816680534e-04  -7.5443445226820100e-14  -2.8033590968107403e-12  -8.2365662587766041e-05  4.1063349217448466e-05  -3.4194451420930618e-10  1.1499224901675005e-10  2.4386619831665106e-12  2.9573498660712764e-07  2.9501558594990532e-05  6.9886109431250589e-20  1.5737439699257808e-01  4.1505335041033005e-13  1.4027320541777242e-04  -4.2965184482111110e-09  8.1444394544995445e-14  -6.0428351386859347e-17  1.7982037912536310e-10  1.8935382027411107e-12  2.0076562107708716e-15  1.3234587322817753e-12  -5.7608435301813804e-18  2.1871450829217246e-08  -8.6720129865770733e-14  -3.1410644342436854e-17  -1.0023623840695732e-13  8.2207512031399869e-13  -5.6267917086323783e-11  -8.8630724408739073e-04  -1.4551881239280548e-11  6.3493692169079886e-03  8.1378902200271953e-09  -1.3839232722811580e-15  4.0826957027246044e-13  1.7622954395409165e+00  -3.4348794064802606e-17  1.3863200922626431e-07  -7.7568241257810841e-15  2.9257105794037132e-08  3.8129762622348540e-11  4.5092527915052201e-14  5.6079497803791386e-06  1.3199152080332909e-10  7.7319913159993448e-11  1.0024177382154450e-10  5.7983022143667930e-11  1.0026921713660773e-06  2.0472951892624811e-02  -5.5560145112401903e-18  1.0945859049350715e-03  9.0589017477636390e-09  1.2640620654209807e-13  1.5282602225571223e-01  5.3015293797131955e+00  -1.3071166017533356e-18  -5.5113017154393034e-12  1.5534353011877436e-13  3.3447762914507338e-18  1.7167725670352090e-05  1.3494152022199410e-07  3.2980379380682561e-03  1.8653192357122894e-10  2.6186476773811713e-10  -3.4192234905010598e-12  -4.2411813779074664e-14  -1.3065573860287990e-16  7.2395493353812983e-15  1.0287535899864606e-12  1.3396970045969382e-16  -3.7846982348157269e-17  8.8793244708814947e-12  -4.1506706727184993e-16  7.3059459533975564e-12  2.1708110535868728e-16  4.3020612089119438e-07  1.0713246065681233e-08  1.3736593630747935e-09  1.2476534035639980e-05  -1.2319136232932149e-08  1.0881746399859187e-08  1.7912969452102892e-05  1.8802112160176987e-07  1.8759816634428630e-15  -2.6680739271386931e-15  -5.1336187740650571e-09  6.5050534231049610e-11  -3.1661819925025561e-15  -2.8266639033611018e-15  -9.0426237477101082e-12  -2.4935319979860157e-06  7.9814525993131036e-11  3.4292387197714373e-04  -1.6539337847388008e-08  1.8165949626100005e-07  3.8070069629427705e-11  1.1026178779134168e-06  5.1614711188039707e-06  1.0210329693710058e-08  5.0414392470645571e-07  1.1070818830089183e-16  1.0698568198823797e-08  -1.1397888551017403e-10  -5.7086170715683515e-05  4.5528161898588895e-08  -9.6684598602370972e-14  -3.9562962626301821e-15  -1.0095671792576528e-07  -6.9100940282355524e-04  -1.0390854306842661e-11  8.7766428282833198e-03  -6.4374921351472583e-14  -2.5879878952559040e-11  1.2071216073605069e-12  3.0559829758168457e+00  -1.2840802128985604e-07  -2.4956467048431672e-08  3.3081832821926064e-05  2.1621132823411529e-13  -3.7486099731575440e-16  1.9231370520558511e-10  -7.0354674943665040e-14  -4.7049142835926565e-13  -1.2848403060410424e-06  3.6737998105673082e-02  -8.2085384295971289e-14  1.6025394216153490e+00  -2.7050654173899734e-11  7.7353856494187625e-06  8.6893199270398416e-03  3.9799487113318852e+00  -1.6151614967179456e-08  1.1604760979253471e-11  7.9149455720931880e-07  2.3079619107697004e-06  -1.0419292258547566e-05  -2.1943469314087052e-06  5.7655340140383426e-02  -6.6725029463614364e-10  7.5786887438964279e-08  -3.1197978940730996e-09  8.2710020251324949e-05  -7.0052372131132218e-04  3.7723678989388209e-03  3.7889305727603749e-13  4.8398418280013141e-06  -2.4631928895443582e-16  -6.3946730020514660e-13  1.1408324873923497e-05  1.5787338354145184e-09  3.2793234370203839e-08  1.0857313244269594e-14  1.9451207200710111e-07  2.1495363255974557e-09  6.2780310725052177e-02  8.0941399808557669e-11  3.9786829413068959e-16  -2.7174555750132864e-14  1.4867827225906400e-02  -2.3375505993852440e-13  -1.2397457796265187e-11  1.3707926417057961e-13  -2.3820199982239866e-09  -3.1965840358787438e-17  -5.7486500739236399e-16  -1.8385713887888993e-16  5.0264587493384854e+00  -2.1150792766442241e-15  1.4254025055669890e-04  6.2985790348133552e-13  -3.8174269286511766e-17  1.6077097131591587e-11  5.5251433707521013e-09  1.3248311048607426e-09  -2.7925464238449358e-12  5.3701650540560210e-07  3.0499707542034577e-10  6.8155879825029576e-12  -5.1440692284845786e-13  -1.0158979450239136e-09  -1.1669069009427700e-05  1.7106027333592606e-03  1.7191683988291441e-02  5.2872501253505851e-14  3.0690404760099728e-08  -4.3611675365196786e-11  -1.6931462288159132e-17  -6.1732917117184340e-17  -5.7171245819777340e-10  1.5115986456518856e-09  3.0586846999362859e-09  3.9835094972522173e-10  1.8762209311561003e-11  1.0471601504733322e-11  3.4393330214449350e-12  3.6559443932652909e+00  8.3836386322047218e-07  7.5011546916407689e-10  6.4497476287119012e-07  4.4721381825667018e-02  9.6344447300999378e-03  -1.7343908584800099e-02  1.4330725291817084e-01  -4.1458246448575828e-14  -1.0824788964398678e-05  6.4299335436602494e-08  -1.6542877328034001e-10  1.0934910042728899e-08  -2.4873481877763125e-08  -3.3661745379721421e-20  7.4439087201955817e-18  -9.1736447762641171e-06  -1.5720529288629220e-11  4.8685690688319162e-10  -4.6835830217059271e-06  4.5149728403046311e-12  6.4567068862218328e-07  -3.3410238595587137e-13  1.0817932529898211e-06  6.8219151650171284e-06  -5.8952399435939551e-14  -4.3602637432621592e-17  2.5361451104187109e+00  8.2810495083209445e-04  3.5057469446595052e-10  -9.8392265685199679e-10  3.0477668496178821e-10  -1.3165649920419940e-18  1.1313515087183748e-15  3.7030815532160867e-13  2.3030627747987364e+00  -1.4721669069188867e-07  1.8058447618443771e-11  5.9887954572241442e-12  -1.6361061114301277e-10  7.6372893181707117e-09  5.0402771415143815e-11  -2.2411051787634089e-11  7.5927172187120208e-04  1.5343466399187353e-05  3.9709986673118968e-09  1.3319273089135099e-13  -1.7500207770140960e-10  6.8886259169418074e-09  5.1840332365769205e-13  -2.9685596553235164e-10  -9.9336003263388297e-05  1.7474590047720717e-06  1.2103251596180618e-09  1.2021685069356406e-10  -4.3174363330583903e-13  -5.4972549726757474e-16  -7.7901857599621177e-12  4.8456757168571660e-02  -6.9632385180372200e-09  -1.1055098460074718e-10  3.4176897845954501e-08  -7.2180688798735181e-10  1.9895705124633494e-09  1.0067634889391535e-07  -7.4894981505837025e-09  -6.8191182515631534e-14  -1.2530476236204425e-10  8.5275395825021793e-04  -9.6194557015213065e-06  -1.6019751498219177e-07  4.3792350823639430e-05  -1.3487049070706647e-05  8.5066472509289454e-07  8.6861107674659441e-07  1.8357789759820845e-11  7.0147179690700584e-12  4.2907671527940832e-04  3.7492022030883446e-16  8.6568095241891949e-02  3.8633580062383936e+00  -2.7158270613033776e-16  9.8792415334109141e-13  -2.4379841749519073e-07  3.5782535805243992e-08  8.8874386508230321e-04  7.7581162920730288e-12  8.3448794088574239e-14  3.8491248542911178e-13  2.9250450496295396e-13  -4.7138039389560295e-13  1.3188924051652373e-06  1.5182564890724691e-05  2.5403346422370447e-09  -1.1253315028244429e-08  5.1285767199687077e-13  1.0481310062536813e-03  -4.9690975049150605e-05  -2.2568073815793131e-04  1.3880820089343327e-07  3.7854605568562592e-10  4.6628015357069888e-09  -9.1466485395553458e-05  1.6338312819158821e-06  8.1122600368416198e-01  4.0141174979774790e-07  6.4574627117369178e-08  5.9640718525160095e+00  -6.3910933390639847e-15  -1.8326902758319490e-09  1.7670953640934196e-08  -1.6340600412997742e-06  -9.1172717284732758e-12  3.2136562924987832e-09  -4.0433465321428604e-13  -1.3569527138493314e-02  1.0022489355650359e-03  6.7130350032513433e-11  -7.3279326678255266e-06  -2.3580701125325452e-09  1.9299791697617218e-12  -2.7197842526850990e-07  2.9711752558111942e-09  4.3200788327604680e-03  1.7781096551887365e-11  -1.6811777545010671e-13  1.2899229841972631e-10  4.1491883385229014e-10  -2.9316300050935844e-15  6.0750035823918246e-10  1.9843785064699015e-14  1.2498983680474030e-06  3.1550689394389637e-08  1.2599610098048199e-03  8.6870045945550633e-12  -2.3851913102726146e-07  1.6174007961198230e-07  -8.5331625984638020e-16  2.6539614436385184e-01  -1.8625878493556071e-13  4.3808296549756490e-08  4.5033243710228979e-10  1.2811053846518149e-06  2.7010012588745998e-06  2.5381033855923244e-13  2.5854474008237001e-07  3.6751482145604246e+00  2.1866734491318684e-10  4.3385283957086709e-08  2.2976846528908177e-10  -2.8710519849018875e-11  -8.7048618716539502e-13  2.9830101882609664e-10  2.6185957732595899e-01  6.9387131413134338e+00  3.5580031163301783e-08  3.6094580585790229e-09  1.3756320347377931e-17  6.6015143696821410e-07  -2.7110035848788056e-07  -1.6147635150140534e-05  -5.6765272104508085e-12  -1.5443355770109537e-11  -2.0497509110515291e-12  9.8716274961207725e-04  -4.4684017497216568e-16  -5.8598022037608911e-16  1.7858619920803722e-18  1.5428685164948181e-13  3.0015966531827118e-05  6.1912944143775977e-05  -1.5016411287762753e-05  -1.5766990826114854e-12  -3.1072786683087291e-06  -8.1885700147902582e-11  -5.4764835639719375e-08  -1.4563528638435867e-12  -2.9233597584115507e-04  -2.9629443405704572e-05  1.1951316820115933e-06  7.8194008074743849e-09  -7.7560274223397005e-09  1.8298259158634505e-07  3.0002602592561849e+00  8.9701459777127757e-01  6.5986000275012513e-01  -2.0684644440770986e-06  -1.3261320792415738e-13  -1.0290753089370079e-03  -2.2973934517441385e-15  4.7247460965802130e-12  2.9075812838824550e-11  9.7344582839353459e-13  -1.0704424705725600e-12  2.5270073820339283e-11  4.2131680316072824e-18  -1.8702784694187136e-07  1.2941426435213085e-12  7.4537496059898762e-16  2.1013040107030412e-14  -2.4331539863890272e-12  3.5614155564514133e-12  -1.0342367160139853e-07  2.5489953721065998e-18  -1.0056585086728092e-20  2.0248804918459294e-12  3.0163837460666780e-21  -1.0974483974079607e-05  -1.3471686357110952e-05  6.1045629150444981e-04  1.3892157258077383e-02  8.2006294602902315e-11  4.6714958786677472e-04  -1.4923869846590631e-15  1.3632041153142741e-06  -3.8532695920241865e-10  -1.0598671469649918e-08  1.0475400324220870e-07  3.8411126572063807e-09  -6.5445018602861355e-06  2.7880537310174895e-17  -9.8714337746807797e-18  6.0213529377768617e-14  1.5154861550038153e-15  6.0023450275208015e-12  2.3003662693849821e-11  -1.2612404903517420e-05  2.9126538623808100e-08  -6.9342411756500516e-15  -4.1143924916111113e-07  -1.6094599092344264e-08  9.0879528556146768e-07  3.1755598713141655e-03  4.1876099213414034e-07  2.3483792528916063e-16  3.0149349033925714e-12  -2.9545649177336507e-13  6.5636598922793392e-11  -1.0902534672585862e-11  -8.8300762444924345e-13  -1.5336278092804432e-14  3.1323460059861137e-11  -6.0554159795019790e-10  1.9204676402844423e-10  -4.4086704021515470e-13  2.1660297542953675e+00  3.7789373515890121e+00  -6.7256315745613015e-08  -1.7616161727907898e-16  6.1068559755095487e-13  1.5763246973970304e-13  -3.7142289689284290e-13  -5.0196112863639795e-18  -3.7570896129605432e-12  -2.0791802282646200e-18  -1.6807009417990744e-02  2.4947034928517484e-01  -1.9030814683457150e-11  1.4118176594056947e-10  1.2912963196045978e-09  -4.5385443379753520e-15  -2.4391295926887172e-15  9.8728544347726729e-10  -2.9347462392055077e-05  1.4411430226738458e-05  2.5945111786453807e-04  1.2908032688184320e-07  8.8696990996417957e-04  1.1219979775222436e-02  4.4252857856394573e-02  3.2243534936712922e-10  1.1759550240925068e-09  -9.2999561217234703e-11  5.2125466893273575e-10  1.4434767748529214e-12  -2.1760795752782505e-14  2.9183429608660205e-09  -3.7242943431999216e-14  1.1342891940963591e-15  2.6348368654831682e-09  2.0800752529436319e-12  6.1490606621899895e-12  -1.6751814370906881e-18  -1.0029165249213225e-17  9.5758561068561267e-10  1.1012942369488008e-13  2.5593232523256831e-07  1.4204824080904191e-11  1.9406811513795885e-10  -1.0797337582640923e-12  3.1434377405694297e-06  -6.5235853907346168e-10  9.1104643854956031e-07  -1.7879031755269472e-10  -5.6387536015853506e-14  -2.9049913869667137e-14  -3.0937587572560033e-14  6.9370841998024813e-18  5.1279172621400685e-18  4.1199452868539541e-17  -1.0278504330518888e-09  -2.2560694183580876e-08  -5.4612479681740697e-12  6.1267468535140297e-10  2.4806521352774417e-07  -1.2105504214476882e-06  6.7164687894627878e-09  -4.0307456602271422e-10  -1.3447573807458010e-08  -4.9898891803299555e-08  7.3255510481392288e-09  2.0526107345529830e-12  -6.1333886548599413e-17  -4.7479093899743147e-12  -1.2314856104867190e-11  1.3698664566343389e-11  -2.4902703750058121e-13  -5.4034604128848753e-03  -1.4912130255998617e-07  2.0767770340909850e-12  -1.6281347682199220e-04  -1.2834573819496519e-10  8.1528872630927211e-10  7.9965630064400273e-12  1.4035634792443738e-06  2.9246190207135366e-03  7.7508702826316437e-19  -8.8188486302112999e-19  9.8786956717543395e-04  -3.2505062478520024e-18  8.8689903759159918e-13  2.7875665467427087e-02  -4.2599369367157199e-02  4.8604487305845788e-03  -9.4830685540707581e-15  -4.3099120120613621e-13  -6.9801401652312481e-02  2.3182285803694083e-04  -2.9500413612941305e-15  3.3149229580987720e+00  2.5804375844134855e-12  9.8289926555556626e-19  -9.7259794778062685e-11  -9.7483423959934509e-15  -4.0809102682577634e-14  -5.1739479807957784e-08  7.3000649605884436e-14  -1.1944147422052314e-08  5.1552516109794902e-13  9.6171336723745748e-01  3.9027256616145714e-08  9.7757059890911061e-02  -1.3687826039836230e-07  4.3892941889254888e-12  6.4714359818792722e-01  1.5032278977409100e-10  9.5682621122958941e-08  -2.9639010500235886e-15  1.9495811489455978e-08  -8.4181366704492731e-14  9.2913686561683752e-15  1.2993504579799925e-06  1.7820844766984603e-08  9.1409219301887033e-13  6.9271139138752909e-06  -8.2576104830036571e-04  2.2960850635976852e-05  5.1350106069276424e-01  9.5832373858907783e-13  6.8869887981882629e-11  -8.9989671306400465e-09  8.1471677393307612e-09  -6.7474946307096502e-04  5.8535411989396411e-11  -1.6204730430845410e-11  5.1437545608878330e-12  3.8088005495189741e-11  1.0715167721779853e-09  -7.4275084685840754e-13  7.8420063121359385e-13  7.3316705587913518e+00  2.3425435320573143e-03  -1.3806466906161627e-03  1.3022751931290164e-04  1.7557902381023231e-02  4.2537498151573000e-01  -7.6614146427028196e-04  3.0391705160082561e-09  6.3294452762294700e-09  1.3018919754815641e-03  -1.0221810398415788e-15  3.8551449612160045e-09  2.1614567377550651e-11  -3.7220909366052832e-07  -3.5951132229459225e-08  5.6881895094854729e-07  -2.2239065202365595e-04  1.7903554972565439e-14  -1.4586457569075149e-14  -4.0257889169085516e-07  2.8070487709820991e-08  9.5335603020233781e-09  1.7549272719668096e-13  4.5303072173241952e-11  3.6162522220418224e-06  -2.1742028390561482e-06  -8.8188031677240794e-15  4.1113382521000659e-17  -2.3063367764427157e-11  1.0983547195660821e-09  3.6252864655374098e-08  -8.8079429242432577e-09  1.5230913184544764e-07  4.2063518078492137e-07  2.7908867877584990e-09  -5.7649986746403997e-05  -1.4438344885206421e-17  2.8463467670562586e-15  1.2739924520917087e-13  5.3803769985395686e-08  1.9454918067902163e-09  8.2422834685740629e-17  5.3826036444888681e-16  1.5051098489866700e-16  6.5873533668616187e-16  3.8685884095092168e-07  1.1492958489721521e-08  2.2213906553159174e-08  5.2636568153681288e-06  8.1613518951702553e-06  -3.8556073607775497e-07  6.4996793465261822e-11  1.5497022460725016e-05  -9.9950995814352025e-13  -2.3989534104909802e-05  5.1490146774312691e-16  -4.8042863057391388e-12  -8.0741053345318316e-12  1.2162228396333196e-11  5.3752815797747545e-10  3.1137698516175690e-10  3.0525515465271151e-09  -4.1356217018361705e-10  1.2440460364721946e-09  -4.4888740431706786e-10  -8.2696465765869311e-09  8.5596455490239296e-17  -7.8367711392517028e-20  6.6443307807273063e-12  1.9334888932967059e-12  5.3720474911533423e-17  7.4625878567011866e-14  -2.1383930049485838e-16  3.4829075639576883e-13  -2.3890059051188390e-12  4.2438512292825934e-12  -3.5786954552605943e-12  -5.0536120823693186e-15  -1.7057334150979980e-13  -1.5459189210125680e-17  7.1928875189911013e-17  -1.5434934750579091e-18  -4.9052818571314242e-17  -5.7794713781669915e-15  5.3465208748947886e+00  1.1912043518349625e-05  -5.0573003725844764e-06  5.4625553335930674e-07  2.2018152617581559e-14  5.6904275707554927e-14  4.3521899524769291e-13  3.4887768049849198e-18  7.1861579472883063e-04  -9.7192125066849126e-11  -4.2143883545064735e-14  8.0545034259379318e-03  3.9158732181590402e-16  1.1156135055244781e-06  -5.6067534921806596e-11  -1.7233109772591224e-05  3.7928