<?xml version="1.0"?>
<VTKFile type="UnstructuredGrid"  version="0.1"  >
<UnstructuredGrid>
<Piece  NumberOfPoints="3002" NumberOfCells="5870">
<Points>
<DataArray  type="Float64"  NumberOfComponents="3"  format="ascii">323455.6100285493 6048753.88242996 0  323455.6100285493 5954782.59950515 0  405920.1480513444 5954782.59950515 0  405920.1480513444 6048753.88242996 0  405920.1480513444 6001768.240967555 0  323455.6100285493 6001768.240967555 0  364687.8790399469 5954782.59950515 0  364687.8790399469 6048753.88242996 0  364687.8790399469 5996367.117560402 0  323455.6100285493 6025261.061698757 0  382226.6271443229 6022560.499995181 0  405920.1480513444 5978275.420236353 0  323455.6100285493 5978275.420236353 0  353897.8957397301 6022560.499995181 0  344071.7445342481 5954782.59950515 0  385304.0135456456 5954782.59950515 0  405920.1480513444 6025261.061698757 0  354379.8117870975 5975574.858532775 0  381582.8168806895 5978840.396198289 0  384950.2598624413 6001768.240967555 0  344643.0480768835 6003429.02033719 0  344071.7445342481 6048753.88242996 0  385304.0135456456 6048753.88242996 0  339717.0321562298 5986078.187627405 0  337515.036058786 5969821.016310448 0  368062.2614420265 6013076.224998265 0  368062.2614420265 6032044.774992097 0  393987.6142659165 5988729.699941677 0  405920.1480513444 6013514.651333156 0  392856.2821527076 6034589.119828064 0  393514.9611654527 5968369.338068204 0  339399.8087404341 6032061.482581838 0  323455.6100285493 6013514.651333156 0  374995.9462927963 5965504.865595459 0  354379.8117870975 6037976.901948514 0  338123.9088969378 6017031.529131207 0  367397.3120126425 5982072.559192053 0  351882.5752379905 5991998.990225234 0  376945.425450199 5991232.708824487 0  392265.0061656896 6013300.936254065 0  357029.7426706699 6006608.947964352 0  380093.6207558212 6036880.127749795 0  323455.6100285493 5966529.009870751 0  405920.1480513444 6037007.472064359 0  405920.1480513444 5966529.009870751 0  323455.6100285493 6037007.472064359 0  333763.6772813987 6048753.88242996 0  405920.1480513444 5990021.830601954 0  323455.6100285493 5990021.830601954 0  362879.3643765316 5966837.319094267 0  348367.6438548031 5965604.161682394 0  334493.1989038612 5996935.948935225 0  395068.5043068817 6023875.372615605 0  348216.0324377587 6013504.844950221 0  379305.9090074943 6011603.390019651 0  372523.5158233726 6003480.000732267 0  395435.2039568929 5999384.346358113 0  395612.080798495 5954782.59950515 0  333763.6772813987 5954782.59950515 0  395612.080798495 6048753.88242996 0  374995.9462927963 6048753.88242996 0  374995.9462927963 5954782.59950515 0  354379.8117870975 6048753.88242996 0  354379.8117870975 5954782.59950515 0  335074.5981535012 6007206.680367459 0  391925.2695590468 5978591.908877409 0  371969.1707190623 6022560.499995181 0  383872.162544519 5969415.106147043 0  358038.7139835292 5984533.09712744 0  369699.869182786 5973102.2359358 0  369841.9126663716 6041099.453006387 0  343176.7440329155 5994428.220622956 0  362933.5332293962 6024385.235173292 0  330640.1760208776 5984148.625419154 0  348684.7494355051 5983110.856817525 0  399094.9690929834 6007537.420809742 0  345447.6324516311 5974162.84917082 0  332859.7749513451 6039150.972778062 0  344517.044630671 6024057.945416138 0  332973.1214415312 6025037.914505113 0  341428.0126373461 6040493.820728126 0  385874.264691618 5992757.40885039 0  350337.3662538711 6030387.535304286 0  359887.2373602368 6016186.250094838 0  377097.8989316926 6029115.217702097 0  338917.7109078235 5961484.016839475 0  329495.5261590715 5972402.215053552 0  336644.7280634616 5978216.610794215 0  330688.6715098422 5962480.256438018 0  359899.8039476132 6031963.415584587 0  399746.255941904 6030426.523907755 0  385511.6875144855 6030368.508996127 0  387377.735783329 6040763.821024337 0  398832.192399829 5974431.100387635 0  387992.9498994246 5962432.032572681 0  405920.1480513444 5984148.625419153 0  364925.7641745284 6005782.953640081 0  361769.877068089 6041226.651684469 0  398452.9199001931 6040850.732439541 0  398946.6205243983 5962252.502309519 0  362305.5577564609 5975984.89789681 0  356822.8065216601 5998470.186307689 0  386900.7115926162 5984820.732438302 0  329528.0119279922 6032067.230024892 0  331139.6939744562 6013813.572928222 0  398457.5876798834 5982541.698799337 0  405920.1480513444 6019387.856515957 0  398685.5166750694 6017257.578706384 0  348587.9424884976 6042755.309150081 0  369841.9126663716 5960143.732550304 0  380149.979919221 5960143.732550304 0  359533.8454135222 5960172.384722514 0  377147.8814772839 5972649.581024994 0  341756.3455763521 6010124.092444684 0  355615.8176864882 5966311.193813809 0  369144.4338274571 5989807.770003954 0  375185.9047422862 5983510.422041401 0  323455.6100285493 6007641.446150355 0  391856.7960121195 6005888.565703365 0  371978.0245217044 5996361.134308098 0  405920.1480513444 5995895.035784755 0  378877.1880032702 5998073.745937059 0  359056.6617417652 5991643.489540118 0  399278.8743430426 5993436.466134224 0  386116.8775939071 6009922.097099247 0  323455.6100285493 6019387.856515957 0  388994.7833819839 6019826.789191471 0  348897.6207366391 5998116.079250046 0  345456.3301153719 6035064.814295612 0  323455.6100285493 6042880.677247159 0  334124.3013408988 5990072.953472659 0  377097.8989316926 6018059.782440464 0  323455.6100285493 5995895.035784755 0  342871.8474798963 5980154.238874755 0  373596.9793292385 6035659.183886081 0  380149.979919221 6048753.88242996 0  376327.9292813152 6042294.581731233 0  329163.3548105369 6004704.843558955 0  350303.9432136903 6007093.032074522 0  383982.6552804571 6015912.664375832 0  345515.490569988 5988567.439252969 0  379019.812877927 6004678.052169549 0  365541.9137639466 6018750.691894444 0  349225.7781606728 5954782.59950515 0  352493.3399767278 5960815.406895458 0  363683.8130458911 5986976.225872464 0  386666.791301207 5975084.583584332 0  368937.6553346639 5966171.092344863 0  400003.9882214358 5968352.273777306 0  328776.0063842635 5992958.433193355 0  339958.4428758043 5999572.344589042 0  354577.7732363954 6012555.454074449 0  328609.6436549741 6048753.88242996 0  382053.0280278458 5988228.496807038 0  330708.6817934912 5978212.973348036 0  372084.7734679543 5978495.086505585 0  358568.2738174705 5971419.415228934 0  328931.2672829705 5998832.905089681 0  323455.6100285493 6031134.266881558 0  405920.1480513444 5972402.215053552 0  405920.1480513444 6031134.266881558 0  323455.6100285493 5972402.215053552 0  405920.1480513444 5960655.804687951 0  323455.6100285493 5960655.804687951 0  405920.1480513444 6007641.446150355 0  323455.6100285493 5984148.625419153 0  405920.1480513444 6042880.677247159 0  346648.7613474604 5960023.05127712 0  342415.3891593561 5966358.988213831 0  350507.6510228226 5971111.740321856 0  391773.9667214506 5994456.117700323 0  338875.8905424621 6026088.827345025 0  361429.1735454847 6010511.262533597 0  389395.7028803263 6025805.543023561 0  392895.6464692951 6043315.288173481 0  332846.8296575367 6019296.633131165 0  373337.4404588729 6009693.515402478 0  336544.3064612215 6043648.151399015 0  348610.2411382072 6019567.839754772 0  381943.4597763228 6042183.394750732 0  355630.0631288611 6028071.82801846 0  363941.5238882306 6035967.852698964 0  328179.67203552 6022271.326978176 0  401066.2857736665 5998807.415073814 0  344387.1099621175 6029612.545574771 0  393435.2235156003 5960233.556458537 0  400735.9970493424 6022675.638064924 0  393708.5772019727 6029179.837160029 0  400609.0696943338 5987857.851798974 0  361753.6614662939 6001152.171757337 0  400766.1144249197 6048753.88242996 0  353363.0524357285 6002630.165620538 0  343248.328463803 6018790.640008039 0  356419.8105951758 6043365.392189237 0  390234.385899412 6000759.497967276 0  368336.1168551637 6000220.532318851 0  328609.6436549741 5954782.59950515 0  387520.8298169724 6035372.992507171 0  400588.0280660195 6035823.299583429 0  329021.6598427091 6043194.252697862 0  393371.710206733 5983576.325812268 0  393638.9721728675 5973623.513063556 0  371727.9212466564 6017113.044457142 0  364687.2762977295 5959941.212693035 0  374995.9462927962 5960346.83186599 0  369841.9126663716 5954782.59950515 0  400766.1144249197 5954782.59950515 0  338917.7109078234 5954782.59950515 0  369841.9126663716 6048753.88242996 0  359533.8454135222 5954782.59950515 0  390458.0471720704 6048753.88242996 0  338917.7109078234 6048753.88242996 0  390458.0471720704 5954782.59950515 0  359533.8454135222 6048753.88242996 0  380149.979919221 5954782.59950515 0  349225.7781606728 6048753.88242996 0  339867.4956514095 6005339.817053361 0  333737.9460226952 6002130.523287664 0  336955.8140048417 6012008.440073739 0  377097.8989316926 6023232.32559834 0  371748.9790486701 6028016.629988787 0  338146.5171983215 5993298.164761053 0  355016.8390227688 6017610.913088997 0  393953.1528190996 6018968.416019509 0  335185.8133477239 5965142.63403323 0  328616.6041642396 5967263.80307608 0  380314.9487662361 5965460.362415641 0  354622.8993466098 6032976.142863722 0  328521.4725131759 6027215.026914048 0  334465.0783479523 6034070.534389696 0  328123.6212682287 6009699.206425843 0  381889.5169855529 5973936.741901617 0  359122.3484437474 6036790.002992895 0  386341.6533148278 5979963.279841923 0  400798.2159679119 6012477.871311778 0  388538.3765260249 5967461.292146791 0  340833.8784183678 5975728.708105717 0  355307.6239213505 5988552.151815021 0  362181.4274823388 5981261.937800813 0  353784.0322742948 5981044.538811012 0  358045.1698423899 5978741.391518688 0  328423.7350325213 6036912.015930048 0  366897.6876966125 6027277.723668203 0  347355.1745641421 5978532.307510624 0  376820.5060332146 5979033.270735624 0  349378.1778589479 6024378.632814493 0  327189.2282939323 6016451.253924556 0  338433.8773236172 6036753.902881841 0  350141.9760340559 5987605.90026687 0  363794.7083927878 5991713.491814731 0  350325.1285660182 6035273.515460094 0  382355.9358007369 5983507.499638396 0  327107.0747437811 59811
[...]
<PointData  Scalars="f_58-0"> 
<DataArray  type="Float64"  Name="f_58-0"  format="ascii">2.1092618387117323e+07  2.4398355594222099e+07  2.0283266890481025e+07  1.7675112165035516e+07  1.9381861075390548e+07  2.2809291642150812e+07  2.2614815193482175e+07  1.9330891496061847e+07  2.2406616056291059e+07  2.2139076965063855e+07  1.9755566998709016e+07  1.9886285050410222e+07  2.3565912465591989e+07  2.0995186070978031e+07  2.3396367798164446e+07  2.1921389867579248e+07  1.8713141157788638e+07  2.2406527145750940e+07  2.1601487225041851e+07  2.0647080080782834e+07  2.2162276701306056e+07  2.0151759608478785e+07  1.8529799071328316e+07  2.2582989142857347e+07  2.3208703640775785e+07  2.0967834113136623e+07  1.9860522840132691e+07  2.0365886451822314e+07  1.9105267618795823e+07  1.8779794081989728e+07  2.0890481919969920e+07  2.1279889040917549e+07  2.2497466548135240e+07  2.2130290152805734e+07  2.0133501902763486e+07  2.1907919756550733e+07  2.2228486025816344e+07  2.2276058950331055e+07  2.1991156197174910e+07  1.9695834291457862e+07  2.1875478176624991e+07  1.9199615575377829e+07  2.4003112415657438e+07  1.8155531158707675e+07  2.0041924371521398e+07  2.1637818582706138e+07  2.0623936656044852e+07  1.9652890638768654e+07  2.3150140035368890e+07  2.2380030062976666e+07  2.2867552902589522e+07  2.2535947521956775e+07  1.9166360170057118e+07  2.1746009326839678e+07  2.0456830445581071e+07  2.1662695820194796e+07  1.9954205184381783e+07  2.1103633387441210e+07  2.3889709814003237e+07  1.8121359994959414e+07  1.8916519058215629e+07  2.2338026041589826e+07  1.9726020767600108e+07  2.2945124943111774e+07  2.2264430805385992e+07  2.0750427733364046e+07  2.0163962189920072e+07  2.1647359142372482e+07  2.2298412086591728e+07  2.2178695536749355e+07  1.9419382831726737e+07  2.2357060806364626e+07  2.0434268563273214e+07  2.3012956751136579e+07  2.2389611333711904e+07  1.9539636534330219e+07  2.2710875884345870e+07  2.1149361223308951e+07  2.1390780660230450e+07  2.1818732307640925e+07  2.0672976179733589e+07  2.0953372737772800e+07  2.0743031586368501e+07  2.1124957314209916e+07  1.9652278064199671e+07  2.3429765275748495e+07  2.3495393127528563e+07  2.2945047522611331e+07  2.3792181993410166e+07  2.0170980702722497e+07  1.8705112865720890e+07  1.9269367367653646e+07  1.8764012609700695e+07  2.0344087594143778e+07  2.1571071834102057e+07  1.9782767985626675e+07  2.1838395313032143e+07  1.9725907264791097e+07  1.8285457734324235e+07  2.0597112171725322e+07  2.2287555666748770e+07  2.2196518530668553e+07  2.1043859126879953e+07  2.1646363401010346e+07  2.2213409309996851e+07  2.0220187857914109e+07  1.8930326944023252e+07  1.9279309941425867e+07  2.0194974871799093e+07  2.2356431989600610e+07  2.2048903184591692e+07  2.2627439820665367e+07  2.1954497930093702e+07  2.2028862502784289e+07  2.2586865272188544e+07  2.2314495388544355e+07  2.1983846605087500e+07  2.2652159823844813e+07  1.9978700347596914e+07  2.2421734695183620e+07  1.9514526942534503e+07  2.1522854725146156e+07  2.2301877676536430e+07  1.9899014956700359e+07  2.0160858048947990e+07  2.2331103639940493e+07  1.9589661025595978e+07  2.2222067779038589e+07  2.0771086939841352e+07  2.1356227339650337e+07  2.2703170214318059e+07  2.0192652050756156e+07  2.2973970484686796e+07  2.2624502135731969e+07  1.9504271846841317e+07  1.8716917320117056e+07  1.9110275212121729e+07  2.2506989514033027e+07  2.1979411845223371e+07  1.9989596811935149e+07  2.2374679811299156e+07  2.0949392264361713e+07  2.0664739178122699e+07  2.3157972888500482e+07  2.2847568039280970e+07  2.2307248016289689e+07  2.1276442377036035e+07  2.2265939978076138e+07  2.0375136118396126e+07  2.2830705496206548e+07  2.2333250244529709e+07  2.1617312599188719e+07  2.0857115575456001e+07  2.1441330117957365e+07  2.3220912208624583e+07  2.2102386701277863e+07  2.2395562553835973e+07  2.2668640035572346e+07  2.1908574705724217e+07  1.9962066183496810e+07  1.8443478176483493e+07  2.3786895926393207e+07  2.0148952189517926e+07  2.4206717498471681e+07  1.9251165095822930e+07  2.3349179903319459e+07  1.7897803099343460e+07  2.3115507412750538e+07  2.3104107206675082e+07  2.2616361752980888e+07  2.0367213710996270e+07  2.1576969822148629e+07  2.1494529684987709e+07  1.9313023301314875e+07  1.8445533081528131e+07  2.2008540340186384e+07  2.0955710651794769e+07  2.0741525689262539e+07  2.1410766271076411e+07  1.8898810670873180e+07  2.0574698781683225e+07  1.9848059420533985e+07  2.2073411066764873e+07  1.9662778614275042e+07  2.1150573808518428e+07  2.1159108021115281e+07  1.9016249618785176e+07  1.8982918678305000e+07  1.9974255077861492e+07  2.2192898015663780e+07  1.7894776187151879e+07  2.2087926922822423e+07  2.1660427428047977e+07  1.9848596674321953e+07  2.0271714843506183e+07  2.2488732717889901e+07  2.4145116540140640e+07  1.8974660483379606e+07  1.8412877348901577e+07  2.1097860094540507e+07  2.0534250170629058e+07  2.0730206027369227e+07  2.0492042931938991e+07  2.2484623372608557e+07  2.2221776813272234e+07  2.2477695441497710e+07  2.0651600947724715e+07  2.3642051543855034e+07  1.9123727307819959e+07  2.2767142227615856e+07  1.8339011689751085e+07  2.0388539743029844e+07  2.1577453759234395e+07  1.9531426817810617e+07  2.2162139577528805e+07  1.9928479044634119e+07  2.2201552766383678e+07  2.2429516987067658e+07  2.2091263184462178e+07  1.9927399580310203e+07  1.9903720272081226e+07  2.2503356332271021e+07  2.1261365014279265e+07  1.9407627428407390e+07  2.3483090854252625e+07  2.3727778853336629e+07  2.1932016051439419e+07  2.0359453817626234e+07  2.1888900548333738e+07  2.1364114349663798e+07  2.2418408988459315e+07  2.1668906784436580e+07  1.9993364154478144e+07  2.1191722356995087e+07  1.9339789451196462e+07  2.1365236756060611e+07  2.2847240922372609e+07  2.2289956195356362e+07  2.2280350075248346e+07  2.2338552647141159e+07  2.2318692164291363e+07  2.1446329325596634e+07  2.0119691528569728e+07  2.2518940777620748e+07  2.1905696565662611e+07  2.1123416961141899e+07  2.2278249772987172e+07  2.1042187254434898e+07  2.2315438473968651e+07  2.2355637040091224e+07  2.0469062097365260e+07  2.1471460730863299e+07  2.3283673975600243e+07  2.2779230191910330e+07  2.3001098610324811e+07  2.1483998929258052e+07  2.2150277625174109e+07  2.2276093830785666e+07  2.2209787025003262e+07  1.9160080612289030e+07  1.9463581478237484e+07  1.9652945848864138e+07  2.3449364865512941e+07  2.3200168137342364e+07  2.0822069305327952e+07  2.0530744947903410e+07  2.1621486579277705e+07  2.0685128642561968e+07  2.1799176769575793e+07  2.2020495414277419e+07  2.0744618772445470e+07  2.1485479772442136e+07  2.2261850413214244e+07  2.2828175288536265e+07  2.2292370643170390e+07  1.9528793021336626e+07  1.9691866092011116e+07  1.9783007279575109e+07  2.0522276861554362e+07  2.2470403059897557e+07  2.1830939282112870e+07  2.2457104733385675e+07  2.2131375052481156e+07  2.1085488716239423e+07  2.2189407427157801e+07  1.8541525102804575e+07  1.9801888473772593e+07  2.0436060396982487e+07  2.2958225350111209e+07  2.0344057692301355e+07  2.0014758312039372e+07  1.9484739310162969e+07  1.8555670386482697e+07  1.9555246376328841e+07  1.9365850528214853e+07  2.2073706700305585e+07  1.9044859069674347e+07  2.3659179935107451e+07  2.3348084573540777e+07  2.0284469678191688e+07  2.2976045438673578e+07  2.2758950777438600e+07  2.3529799065978941e+07  2.0077413248428401e+07  1.8135442890871141e+07  1.8147260342359137e+07  2.3958114323341228e+07  2.1832197378288843e+07  1.9947445623296216e+07  2.1748598690565322e+07  2.0502035379343782e+07  2.3907497412894584e+07  1.8995119225061197e+07  2.1826658178015877e+07  1.9438371745889287e+07  1.9632539870296314e+07  2.0564240673558224e+07  2.0872474128523577e+07  2.0308335519252799e+07  2.0772412083992746e+07  1.9159636800054140e+07  2.2229151568104085e+07  2.2296229810717478e+07  2.2067485736158453e+07  2.0432888017092671e+07  2.0237578084404513e+07  2.1694120670006383e+07  2.4053300018367290e+07  1.8015696999321871e+07  2.2513112554509494e+07  2.0096577470043089e+07  2.0552800021848198e+07  2.2514387434894431e+07  1.8804497013058491e+07  1.8938509442274354e+07  1.8649910665738877e+07  2.1037209679890681e+07  2.1127802681212232e+07  2.1912300898443766e+07  2.1543661537463494e+07  2.1388108345541883e+07  2.1919037540082138e+07  2.2413347259483840e+07  2.2263533512000173e+07  1.9564691110399712e+07  2.0855723286697146e+07  1.9503590905120149e+07  2.1632050630204413e+07  1.9669639018173590e+07  2.1988936134277191e+07  2.1221407723734394e+07  2.1496279706426587e+07  2.2020378803498503e+07  2.2066113789510738e+07  2.2225562572892416e+07  2.2266832820138142e+07  2.0253771254929863e+07  2.2305811974994104e+07  1.8753094454546232e+07  2.0461942210831739e+07  2.0268371705771532e+07  2.3171882054558776e+07  2.1776659400328811e+07  2.1114994495283883e+07  2.0057968625945836e+07  2.0220676050644692e+07  1.9201996966339909e+07  2.2376278199025273e+07  2.0854031683700446e+07  2.0242795504272196e+07  1.8890737717761572e+07  2.1051832021429036e+07  1.9796308024970066e+07  2.2786831083148025e+07  2.2670417551714331e+07  2.2517849662806679e+07  2.2245846280692421e+07  2.2344147976396337e+07  2.2200547643473409e+07  1.9895903066009339e+07  2.0440724871459756e+07  2.2447172319935292e+07  1.8714749925534010e+07  2.2087967759263936e+07  2.2354159469765082e+07  2.3277747836804420e+07  2.1232873309360806e+07  2.2281976154229034e+07  1.9767718825090472e+07  1.9371288586822696e+07  2.2479854492003459e+07  2.2619217728982154e+07  2.3896398114480074e+07  2.2678146865296297e+07  2.0745951202217091e+07  2.2146610400073029e+07  2.2359770860794585e+07  2.0857871492892180e+07  2.2580843132404223e+07  2.1142448364225131e+07  2.1636996217080034e+07  2.0300571523399323e+07  2.0848816543522038e+07  1.9170650557345357e+07  2.0196834875268262e+07  1.9961277098694496e+07  2.0961083521396417e+07  2.1807566957319383e+07  2.2300449062378578e+07  1.9870066010038398e+07  1.9728063293887526e+07  1.9277257365036096e+07  1.9317256520887226e+07  2.1644528291401345e+07  2.0946454043567240e+07  2.1087967490333036e+07  2.2176931457037855e+07  2.3648301958279621e+07  2.0036815106695328e+07  2.0804815241477244e+07  2.1948721126211181e+07  2.1749491135666680e+07  1.9938386140230067e+07  1.8621757606960718e+07  1.8298228154751856e+07  1.8493881721141532e+07  2.3158623344658900e+07  1.9688364833923988e+07  2.0093819475259978e+07  1.9181170133240033e+07  1.9357371363813769e+07  1.8480260806793582e+07  2.0384988953535888e+07  2.0626167314080536e+07  2.2115333707388438e+07  2.2221671585261595e+07  2.2674226475825146e+07  2.0014642681571834e+07  2.1844470310130298e+07  2.1789867592538990e+07  2.0739507801565070e+07  2.0117686122876704e+07  2.2304523971905287e+07  2.1980991590597637e+07  2.3625701108224630e+07  2.2417566101669740e+07  2.0559186401308760e+07  2.2097102914942499e+07  2.2868334841066848e+07  2.2608613709918987e+07  2.3023555338308837e+07  2.2514117567000184e+07  2.0243258466142032e+07  1.9997990523479152e+07  2.0150145709720522e+07  2.1653794851343662e+07  2.2380157830776952e+07  2.1833011669174854e+07  1.9111444495251503e+07  2.0692467096493382e+07  2.3031983830006346e+07  2.1065504179230649e+07  2.0751668809284460e+07  2.2411688602511369e+07  2.3706425563887797e+07  2.2600158998915628e+07  1.9281537582489561e+07  2.1268465872181363e+07  2.2349372180967599e+07  2.0011844826335683e+07  1.9087846440308686e+07  2.1902697839934539e+07  1.9562998721223969e+07  2.1369520756565128e+07  2.2399547605405390e+07  2.2796269503089517e+07  2.2292034690689530e+07  1.9679072236296374e+07  2.2305427940600745e+07  2.2248589713865269e+07  1.9004241566399127e+07  1.9605721208314765e+07  2.1369556689899325e+07  2.1392784414056476e+07  2.2441543271567237e+07  2.2656785399901535e+07  2.2769045708765477e+07  2.1513092014315426e+07  2.0628407565325052e+07  2.0393889873926952e+07  2.2276040231028587e+07  1.9720360058253400e+07  2.2490960840466604e+07  2.1332987019103445e+07  1.9500399304875705e+07  2.2117835225788333e+07  2.1365047088299073e+07  2.2546968909066848e+07  2.2659337720520847e+07  2.2890210852405790e+07  2.0142217622206360e+07  2.2029260525114860e+07  2.1835118866773922e+07  2.1695078441919509e+07  2.3246332645035613e+07  1.9850471983824100e+07  2.2164631741700627e+07  1.9927032218057856e+07  2.2575328887084182e+07  2.1914108165457472e+07  2.2506957562690236e+07  2.2229804327271745e+07  2.2151038723832384e+07  2.1390098601789076e+07  2.1405804240510300e+07  2.1405293866524778e+07  2.2464762771920953e+07  2.2376216790392775e+07  2.2370077504342612e+07  2.1076671916856203e+07  2.1074192463914685e+07  2.0683291313357528e+07  2.2081451683979742e+07  2.0479988509746078e+07  2.2336007369120870e+07  1.9679020824913688e+07  2.2953381180402700e+07  2.2821646215115014e+07  2.3060033699217800e+07  2.1347807317462604e+07  2.1445821693761125e+07  1.7783016743973877e+07  2.0556622270929441e+07  2.0387857049018897e+07  2.1166413609225377e+07  1.8750324384606764e+07  2.0189987538378906e+07  2.0507423123785499e+07  1.9746037823574353e+07  2.4303623980835404e+07  2.4272377061838843e+07  1.8809893026778687e+07  2.1067115559915531e+07  2.2294106719767902e+07  2.2274176129332747e+07  2.1986985846702471e+07  2.0648220659426250e+07  1.8828294996143512e+07  2.2319652972173143e+07  2.3519799134335224e+07  2.2288209989966951e+07  2.2326399641082950e+07  2.2203594938865107e+07  1.9425380333009578e+07  2.0933552255377624e+07  2.1016376462040722e+07  1.8233141932914175e+07  1.8261753277860746e+07  1.8612212693543386e+07  1.8382579164867193e+07  2.2985434011084136e+07  2.2801782861507725e+07  1.9985962803435009e+07  2.1342328094379097e+07  2.0443356425691292e+07  2.2246938643306606e+07  2.2366935059926260e+07  2.0238192693403587e+07  2.0483590397701617e+07  1.9317625804253090e+07  2.0076958076775063e+07  2.1313547069453053e+07  1.8624733172171932e+07  1.9496915586762439e+07  2.0956611209408894e+07  2.2957059416471720e+07  2.3262754656288035e+07  2.1729397429739647e+07  1.9229063238064002e+07  1.9165591106981613e+07  2.2922082667046905e+07  2.2234341545207258e+07  2.1333079242143493e+07  2.2308761968688224e+07  1.8400125322587114e+07  2.3299839188242018e+07  2.3119760029017530e+07  2.3113131161530916e+07  1.7783874912202261e+07  2.2730048942407653e+07  2.1200616887040224e+07  2.1219425359208006e+07  2.1744838194560070e+07  2.2750491959416680e+07  2.2640699095782891e+07  2.2497599344665244e+07  2.2211907861965004e+07  2.2239038290627643e+07  2.0171675505619120e+07  2.2177893957760461e+07  2.2120049252111197e+07  2.2177268527831800e+07  1.9583387554436449e+07  2.0171893089548379e+07  2.1735412553500544e+07  2.1642868901358187e+07  2.0048128258784875e+07  2.2410926690147333e+07  2.2567525483016375e+07  2.2549760336829271e+07  2.3118605163010649e+07  2.0208870361768097e+07  1.9021813472885709e+07  2.2416487953689378e+07  2.3676315843553301e+07  1.9927287965621885e+07  1.8583488256698065e+07  2.0093765039811302e+07  2.4106672297381394e+07  1.8021540253990907e+07  1.9838262647600830e+07  2.3456627471535631e+07  1.9447565873391587e+07  2.0856658269672748e+07  2.1364037345810637e+07  2.1059696071044583e+07  2.2258715702407736e+07  2.2423914961850312e+07  2.2056499568435770e+07  2.1763445350243971e+07  2.3275405945444189e+07  2.3263799310275503e+07  2.3423241353040941e+07  2.0506743208437033e+07  2.0648404090151455e+07  2.0945219215278998e+07  2.1813061119009867e+07  2.2339619683914922e+07  1.8876090032790013e+07  1.9068010044832624e+07  2.2310004802330375e+07  2.2199956326577809e+07  2.0352881229946081e+07  2.0575264028585929e+07  2.0746057352244668e+07  2.2287369058605090e+07  1.9807969353518195e+07  1.9790320181204304e+07  1.9803758591196239e+07  2.3025941977161016e+07  2.1965850605649970e+07  2.1884643162288550e+07  2.1959049661571350e+07  2.1301043107167851e+07  1.9454822089929704e+07  2.2083811188006416e+07  2.2022063086651821e+07  2.0000482403632008e+07  1.9909897763638720e+07  1.9773228226102836e+07  1.9519304174801521e+07  2.2221243171527825e+07  2.0740507384096138e+07  2.0921155680808131e+07  2.0106454371529464e+07  2.0562151740255028e+07  1.8850550448074106e+07  2.2171857183481365e+07  2.2064312198383011e+07  2.2315819490345642e+07  1.8324432928627633e+07  2.1666097015461050e+07  2.1543303697606139e+07  1.9787815418503534e+07  2.2044271284011059e+07  2.1449941189979777e+07  2.3017970583263595e+07  2.1233058366639465e+07  2.1761579087895114e+07  2.3519157347476017e+07  1.8806801270640552e+07  2.1216420691918515e+07  1.9227912349929757e+07  2.1872243472615309e+07  2.1071459821841713e+07  2.0741004199348439e+07  2.2375723374716472e+07  2.2365324708573546e+07  2.1583500258337475e+07  2.2779798501564346e+07  2.0616013991695419e+07  1.9131098350537941e+07  1.9810155389210846e+07  1.8815360133263066e+07  1.9254987338706933e+07  1.8570958016740277e+07  1.8329619599516764e+07  1.9760837359153770e+07  1.9767236461546384e+07  2.1463175858368684e+07  1.9640022426296283e+07  2.0388946416212458e+07  2.0320193032081328e+07  2.0667317802233502e+07  2.1778582556298345e+07  1.8972591344590880e+07  2.1528381730181631e+07  2.1537266793247964e+07  2.2004309233735282e+07  2.2051137494368490e+07  2.2060889318289585e+07  1.8850630968391400e+07  1.8875945803758450e+07  1.9113671306630958e+07  2.2700765042743396e+07  2.2852778876692820e+07  2.1808568759240728e+07  2.2353640778214913e+07  2.0301577207803082e+07  2.2256250419127151e+07  2.0177816620643254e+07  2.0404063498273458e+07  2.0108633448559776e+07  1.9957104859026425e+07  2.2473647120897871e+07  2.0892003654031739e+07  1.8577817479641870e+07  2.0442532297841802e+07  1.9015876048362870e+07  2.2297824749214102e+07  2.2292945295605220e+07  2.2251514765333347e+07  2.1249716641483661e+07  2.1249587832120311e+07  2.1536491496210206e+07  2.0012056460985776e+07  2.2034191841709975e+07  2.1984707692043629e+07  2.3372749099671576e+07  2.2300908835135683e+07  2.1022636173282623e+07  2.1078504170887589e+07  2.0455915205904555e+07  1.9629241141112469e+07  2.2413084452445321e+07  2.0908963074645497e+07  2.0517477395608429e+07  1.9865579784799419e+07  2.1787877661307152e+07  2.2298825888158120e+07  2.1141445650694475e+07  2.2069770714125734e+07  2.1022967619949467e+07  2.3492478580135051e+07  2.3345961704704683e+07  1.9286147100147709e+07  1.9225002079628773e+07  2.0037502787736896e+07  2.3780317743520297e+07  2.3886091852543142e+07  2.3597163066149734e+07  1.9665045987562083e+07  1.9510771253377892e+07  1.9399160692307543e+07  2.0638737292945247e+07  2.0626946792366315e+07  2.0360328490508839e+07  2.2737477874029923e+07  2.0029706401468854e+07  1.9865027899590202e+07  2.0437201350010585e+07  2.1961094659941074e+07  2.0955236158814114e+07  2.2546453391413383e+07  2.2403795216552004e+07  2.2147245412239108e+07  2.2290928373269025e+07  2.2170875910523076e+07  2.2002419088145282e+07  2.2044401418441329e+07  2.2179791784756832e+07  2.2433009640605036e+07  2.3760826698226422e+07  2.0974320297042895e+07  2.2409727652168680e+07  2.1766931835488714e+07  2.0269611607850410e+07  1.9019601475359324e+07  1.8437038872235797e+07  2.3046476446421850e+07  2.2688805732114635e+07  2.2545417500020601e+07  2.2257201798444472e+07  1.9432226066673815e+07  2.0868901439194996e+07  2.4016927107755505e+07  1.9825332454104241e+07  1.8007860628714178e+07  2.3765220249243628e+07  1.8559863996467747e+07  2.1362671924472600e+07  2.1460857776183315e+07  1.9972070198713847e+07  2.2119374785371806e+07  2.3603446143301964e+07  2.1956178656234335e+07  1.8633382783319786e+07  2.0681261154541988e+07  2.1406826590799160e+07  1.9486788766997468e+07  2.3378146508049648e+07  2.0904736006230168e+07  2.3633247113288667e+07  2.0111605966558635e+07  2.2704376630631704e+07  2.0059404556546241e+07  2.2919329580272559e+07  2.0578738398035031e+07  2.1518879243445817e+07  2.1517375237228151e+07  2.2281604337838169e+07  2.0109079422392033e+07  2.0391876370475750e+07  1.9491834732372113e+07  1.9293055581165750e+07  2.0129605058243703e+07  1.9445951164158195e+07  1.7918926844034795e+07  2.0518940764108513e+07  2.0308317592136