<?xml version="1.0"?>
<VTKFile type="UnstructuredGrid"  version="0.1"  >
<UnstructuredGrid>
<Piece  NumberOfPoints="3002" NumberOfCells="5870">
<Points>
<DataArray  type="Float64"  NumberOfComponents="3"  format="ascii">323455.6100285493 6048753.88242996 0  323455.6100285493 5954782.59950515 0  405920.1480513444 5954782.59950515 0  405920.1480513444 6048753.88242996 0  405920.1480513444 6001768.240967555 0  323455.6100285493 6001768.240967555 0  364687.8790399469 5954782.59950515 0  364687.8790399469 6048753.88242996 0  364687.8790399469 5996367.117560402 0  323455.6100285493 6025261.061698757 0  382226.6271443229 6022560.499995181 0  405920.1480513444 5978275.420236353 0  323455.6100285493 5978275.420236353 0  353897.8957397301 6022560.499995181 0  344071.7445342481 5954782.59950515 0  385304.0135456456 5954782.59950515 0  405920.1480513444 6025261.061698757 0  354379.8117870975 5975574.858532775 0  381582.8168806895 5978840.396198289 0  384950.2598624413 6001768.240967555 0  344643.0480768835 6003429.02033719 0  344071.7445342481 6048753.88242996 0  385304.0135456456 6048753.88242996 0  339717.0321562298 5986078.187627405 0  337515.036058786 5969821.016310448 0  368062.2614420265 6013076.224998265 0  368062.2614420265 6032044.774992097 0  393987.6142659165 5988729.699941677 0  405920.1480513444 6013514.651333156 0  392856.2821527076 6034589.119828064 0  393514.9611654527 5968369.338068204 0  339399.8087404341 6032061.482581838 0  323455.6100285493 6013514.651333156 0  374995.9462927963 5965504.865595459 0  354379.8117870975 6037976.901948514 0  338123.9088969378 6017031.529131207 0  367397.3120126425 5982072.559192053 0  351882.5752379905 5991998.990225234 0  376945.425450199 5991232.708824487 0  392265.0061656896 6013300.936254065 0  357029.7426706699 6006608.947964352 0  380093.6207558212 6036880.127749795 0  323455.6100285493 5966529.009870751 0  405920.1480513444 6037007.472064359 0  405920.1480513444 5966529.009870751 0  323455.6100285493 6037007.472064359 0  333763.6772813987 6048753.88242996 0  405920.1480513444 5990021.830601954 0  323455.6100285493 5990021.830601954 0  362879.3643765316 5966837.319094267 0  348367.6438548031 5965604.161682394 0  334493.1989038612 5996935.948935225 0  395068.5043068817 6023875.372615605 0  348216.0324377587 6013504.844950221 0  379305.9090074943 6011603.390019651 0  372523.5158233726 6003480.000732267 0  395435.2039568929 5999384.346358113 0  395612.080798495 5954782.59950515 0  333763.6772813987 5954782.59950515 0  395612.080798495 6048753.88242996 0  374995.9462927963 6048753.88242996 0  374995.9462927963 5954782.59950515 0  354379.8117870975 6048753.88242996 0  354379.8117870975 5954782.59950515 0  335074.5981535012 6007206.680367459 0  391925.2695590468 5978591.908877409 0  371969.1707190623 6022560.499995181 0  383872.162544519 5969415.106147043 0  358038.7139835292 5984533.09712744 0  369699.869182786 5973102.2359358 0  369841.9126663716 6041099.453006387 0  343176.7440329155 5994428.220622956 0  362933.5332293962 6024385.235173292 0  330640.1760208776 5984148.625419154 0  348684.7494355051 5983110.856817525 0  399094.9690929834 6007537.420809742 0  345447.6324516311 5974162.84917082 0  332859.7749513451 6039150.972778062 0  344517.044630671 6024057.945416138 0  332973.1214415312 6025037.914505113 0  341428.0126373461 6040493.820728126 0  385874.264691618 5992757.40885039 0  350337.3662538711 6030387.535304286 0  359887.2373602368 6016186.250094838 0  377097.8989316926 6029115.217702097 0  338917.7109078235 5961484.016839475 0  329495.5261590715 5972402.215053552 0  336644.7280634616 5978216.610794215 0  330688.6715098422 5962480.256438018 0  359899.8039476132 6031963.415584587 0  399746.255941904 6030426.523907755 0  385511.6875144855 6030368.508996127 0  387377.735783329 6040763.821024337 0  398832.192399829 5974431.100387635 0  387992.9498994246 5962432.032572681 0  405920.1480513444 5984148.625419153 0  364925.7641745284 6005782.953640081 0  361769.877068089 6041226.651684469 0  398452.9199001931 6040850.732439541 0  398946.6205243983 5962252.502309519 0  362305.5577564609 5975984.89789681 0  356822.8065216601 5998470.186307689 0  386900.7115926162 5984820.732438302 0  329528.0119279922 6032067.230024892 0  331139.6939744562 6013813.572928222 0  398457.5876798834 5982541.698799337 0  405920.1480513444 6019387.856515957 0  398685.5166750694 6017257.578706384 0  348587.9424884976 6042755.309150081 0  369841.9126663716 5960143.732550304 0  380149.979919221 5960143.732550304 0  359533.8454135222 5960172.384722514 0  377147.8814772839 5972649.581024994 0  341756.3455763521 6010124.092444684 0  355615.8176864882 5966311.193813809 0  369144.4338274571 5989807.770003954 0  375185.9047422862 5983510.422041401 0  323455.6100285493 6007641.446150355 0  391856.7960121195 6005888.565703365 0  371978.0245217044 5996361.134308098 0  405920.1480513444 5995895.035784755 0  378877.1880032702 5998073.745937059 0  359056.6617417652 5991643.489540118 0  399278.8743430426 5993436.466134224 0  386116.8775939071 6009922.097099247 0  323455.6100285493 6019387.856515957 0  388994.7833819839 6019826.789191471 0  348897.6207366391 5998116.079250046 0  345456.3301153719 6035064.814295612 0  323455.6100285493 6042880.677247159 0  334124.3013408988 5990072.953472659 0  377097.8989316926 6018059.782440464 0  323455.6100285493 5995895.035784755 0  342871.8474798963 5980154.238874755 0  373596.9793292385 6035659.183886081 0  380149.979919221 6048753.88242996 0  376327.9292813152 6042294.581731233 0  329163.3548105369 6004704.843558955 0  350303.9432136903 6007093.032074522 0  383982.6552804571 6015912.664375832 0  345515.490569988 5988567.439252969 0  379019.812877927 6004678.052169549 0  365541.9137639466 6018750.691894444 0  349225.7781606728 5954782.59950515 0  352493.3399767278 5960815.406895458 0  363683.8130458911 5986976.225872464 0  386666.791301207 5975084.583584332 0  368937.6553346639 5966171.092344863 0  400003.9882214358 5968352.273777306 0  328776.0063842635 5992958.433193355 0  339958.4428758043 5999572.344589042 0  354577.7732363954 6012555.454074449 0  328609.6436549741 6048753.88242996 0  382053.0280278458 5988228.496807038 0  330708.6817934912 5978212.973348036 0  372084.7734679543 5978495.086505585 0  358568.2738174705 5971419.415228934 0  328931.2672829705 5998832.905089681 0  323455.6100285493 6031134.266881558 0  405920.1480513444 5972402.215053552 0  405920.1480513444 6031134.266881558 0  323455.6100285493 5972402.215053552 0  405920.1480513444 5960655.804687951 0  323455.6100285493 5960655.804687951 0  405920.1480513444 6007641.446150355 0  323455.6100285493 5984148.625419153 0  405920.1480513444 6042880.677247159 0  346648.7613474604 5960023.05127712 0  342415.3891593561 5966358.988213831 0  350507.6510228226 5971111.740321856 0  391773.9667214506 5994456.117700323 0  338875.8905424621 6026088.827345025 0  361429.1735454847 6010511.262533597 0  389395.7028803263 6025805.543023561 0  392895.6464692951 6043315.288173481 0  332846.8296575367 6019296.633131165 0  373337.4404588729 6009693.515402478 0  336544.3064612215 6043648.151399015 0  348610.2411382072 6019567.839754772 0  381943.4597763228 6042183.394750732 0  355630.0631288611 6028071.82801846 0  363941.5238882306 6035967.852698964 0  328179.67203552 6022271.326978176 0  401066.2857736665 5998807.415073814 0  344387.1099621175 6029612.545574771 0  393435.2235156003 5960233.556458537 0  400735.9970493424 6022675.638064924 0  393708.5772019727 6029179.837160029 0  400609.0696943338 5987857.851798974 0  361753.6614662939 6001152.171757337 0  400766.1144249197 6048753.88242996 0  353363.0524357285 6002630.165620538 0  343248.328463803 6018790.640008039 0  356419.8105951758 6043365.392189237 0  390234.385899412 6000759.497967276 0  368336.1168551637 6000220.532318851 0  328609.6436549741 5954782.59950515 0  387520.8298169724 6035372.992507171 0  400588.0280660195 6035823.299583429 0  329021.6598427091 6043194.252697862 0  393371.710206733 5983576.325812268 0  393638.9721728675 5973623.513063556 0  371727.9212466564 6017113.044457142 0  364687.2762977295 5959941.212693035 0  374995.9462927962 5960346.83186599 0  369841.9126663716 5954782.59950515 0  400766.1144249197 5954782.59950515 0  338917.7109078234 5954782.59950515 0  369841.9126663716 6048753.88242996 0  359533.8454135222 5954782.59950515 0  390458.0471720704 6048753.88242996 0  338917.7109078234 6048753.88242996 0  390458.0471720704 5954782.59950515 0  359533.8454135222 6048753.88242996 0  380149.979919221 5954782.59950515 0  349225.7781606728 6048753.88242996 0  339867.4956514095 6005339.817053361 0  333737.9460226952 6002130.523287664 0  336955.8140048417 6012008.440073739 0  377097.8989316926 6023232.32559834 0  371748.9790486701 6028016.629988787 0  338146.5171983215 5993298.164761053 0  355016.8390227688 6017610.913088997 0  393953.1528190996 6018968.416019509 0  335185.8133477239 5965142.63403323 0  328616.6041642396 5967263.80307608 0  380314.9487662361 5965460.362415641 0  354622.8993466098 6032976.142863722 0  328521.4725131759 6027215.026914048 0  334465.0783479523 6034070.534389696 0  328123.6212682287 6009699.206425843 0  381889.5169855529 5973936.741901617 0  359122.3484437474 6036790.002992895 0  386341.6533148278 5979963.279841923 0  400798.2159679119 6012477.871311778 0  388538.3765260249 5967461.292146791 0  340833.8784183678 5975728.708105717 0  355307.6239213505 5988552.151815021 0  362181.4274823388 5981261.937800813 0  353784.0322742948 5981044.538811012 0  358045.1698423899 5978741.391518688 0  328423.7350325213 6036912.015930048 0  366897.6876966125 6027277.723668203 0  347355.1745641421 5978532.307510624 0  376820.5060332146 5979033.270735624 0  349378.1778589479 6024378.632814493 0  327189.2282939323 6016451.253924556 0  338433.8773236172 6036753.902881841 0  350141.9760340559 5987605.90026687 0  363794.7083927878 5991713.491814731 0  350325.1285660182 6035273.515460094 0  382355.9358007369 5983507.499638396 0  327107.0747437811 59811
[...]
<PointData  Scalars="f_24869-0"> 
<DataArray  type="Float64"  Name="f_24869-0"  format="ascii">2.1373132428451948e+07  2.4600706612166878e+07  2.0290281529586606e+07  1.7836466506325431e+07  1.9233984131617777e+07  2.2955910569078218e+07  2.2646212636135429e+07  1.9509062322472323e+07  2.1667931938843012e+07  2.2365414890339535e+07  1.9707700709867079e+07  1.9792566690679856e+07  2.3731701547697745e+07  2.1042519242334425e+07  2.3539958812194735e+07  2.1914354769450128e+07  1.8762210865586817e+07  2.2379516101072013e+07  2.1363309458725709e+07  2.0217139184792534e+07  2.2150598558450285e+07  2.0395607783223137e+07  1.8685594927424066e+07  2.2652108109422449e+07  2.3356589513911624e+07  2.0659746636526421e+07  1.9944501017993379e+07  2.0135180379029136e+07  1.9044154797156770e+07  1.8889100165100511e+07  2.0841264263368752e+07  2.1497452994750042e+07  2.2676560820096176e+07  2.2082537524671618e+07  2.0315160750339922e+07  2.2047985993829492e+07  2.1921670254684780e+07  2.2116747850227434e+07  2.1191795603237960e+07  1.9571422312510710e+07  2.1600487853520572e+07  1.9314632346323188e+07  2.4194528321371231e+07  1.8287000351297006e+07  2.0019670550124016e+07  2.1903421044768665e+07  2.0894483164508846e+07  1.9495935997935068e+07  2.3294379396657672e+07  2.2368233689608511e+07  2.2964298938000575e+07  2.2635461207038462e+07  1.9185678321050905e+07  2.1752500016670033e+07  2.0149089629792828e+07  2.0887378059216965e+07  1.9729352991758227e+07  2.1105049661012150e+07  2.4076266193804353e+07  1.8280428105008896e+07  1.9076479909791600e+07  2.2336933416267086e+07  1.9935281702181883e+07  2.3030674660158265e+07  2.2379590043442156e+07  2.0598780944450263e+07  2.0098025093964022e+07  2.1563342073904801e+07  2.2092946308024429e+07  2.2050596429061223e+07  1.9568790403429490e+07  2.2358587037632722e+07  2.0436454025205143e+07  2.3151102075939734e+07  2.2363791844778486e+07  1.9405732791749783e+07  2.2785254761555303e+07  2.1410217121536635e+07  2.1531793346607354e+07  2.2027851583235849e+07  2.0914103294197839e+07  2.0506954255993787e+07  2.0894855742101755e+07  2.0999116342107661e+07  1.9690471349114522e+07  2.3591999510721657e+07  2.3667293727082673e+07  2.3068670785426110e+07  2.3981149005708419e+07  2.0284558335924141e+07  1.8792427175452106e+07  1.9332403263229761e+07  1.8903175700871728e+07  2.0265343317608599e+07  2.1547071865258377e+07  1.9651858148092017e+07  2.1243555737985559e+07  1.9896083447129104e+07  1.8431319054501306e+07  2.0588220202818520e+07  2.2167816022579201e+07  2.1849269711420074e+07  2.0746962565533333e+07  2.1892621443123877e+07  2.2377709852560680e+07  2.0077223020273991e+07  1.8925311369556297e+07  1.9240420562188517e+07  2.0416820524822265e+07  2.2356895887429535e+07  2.2031085209313240e+07  2.2674884265378140e+07  2.1817548201441430e+07  2.2093073291915383e+07  2.2628340711391643e+07  2.1690122557727113e+07  2.1581425451264020e+07  2.2812193965687543e+07  1.9754366416198399e+07  2.1319161524078604e+07  1.9350458224164698e+07  2.0743769781724505e+07  2.1940306567449052e+07  1.9708608281628937e+07  1.9910610567078572e+07  2.2533443178045403e+07  1.9533463358437933e+07  2.2113603846260790e+07  2.0976886169748802e+07  2.1632952662809890e+07  2.2810234828349866e+07  2.0036082095757462e+07  2.3115372094387729e+07  2.2688732435280304e+07  1.9612761841974981e+07  1.8873391980646189e+07  1.9256507749934193e+07  2.2648559309822578e+07  2.1884425727763716e+07  1.9832691542602468e+07  2.2359677696456414e+07  2.0417558752055522e+07  2.0539445811482139e+07  2.3273369148354683e+07  2.2935136995922420e+07  2.1923595225239269e+07  2.1133959843102843e+07  2.2229018012838427e+07  2.0339178071643136e+07  2.2963217469651889e+07  2.2379511438144218e+07  2.1507462969956312e+07  2.1135018587132599e+07  2.0959807665458996e+07  2.3373831615232185e+07  2.1854450293671466e+07  2.2370994325368557e+07  2.2801332512906611e+07  2.2156694693652209e+07  1.9907192984415784e+07  1.8539439722196631e+07  2.3966223881409220e+07  2.0148258586084176e+07  2.4406079354614645e+07  1.9139706748259827e+07  2.3502039218239382e+07  1.8051491619268555e+07  2.3240264100747965e+07  2.3236188048312422e+07  2.2666055320508607e+07  2.0071568176008694e+07  2.1765974132027298e+07  2.1196271840169415e+07  1.9335737482214559e+07  1.8596233120436244e+07  2.2190681793795489e+07  2.0515352533720624e+07  2.1002681435560852e+07  2.1476221614744607e+07  1.9042421004357569e+07  2.0672748713089015e+07  1.9980316304901130e+07  2.2283187405968189e+07  1.9489926289339721e+07  2.1331049300001126e+07  2.1150506738105826e+07  1.9037525530823406e+07  1.9050987849967014e+07  1.9810696646592047e+07  2.1601374152602587e+07  1.8055307774790902e+07  2.1876521474423815e+07  2.1770832607811593e+07  2.0043735540585786e+07  1.9964826424351301e+07  2.1385726629235722e+07  2.4343396040326182e+07  1.9083501545787066e+07  1.8536753184816871e+07  2.1371846025407955e+07  2.0341334247561768e+07  2.0638974583847821e+07  2.0299632948335689e+07  2.2506257673776552e+07  2.2208326997064818e+07  2.2489303852251034e+07  2.0656881040256448e+07  2.3810060487917874e+07  1.9290997741227098e+07  2.2823895693690911e+07  1.8495940732729219e+07  2.0647407635816440e+07  2.1574064534000900e+07  1.9724087378381960e+07  2.2155179466878526e+07  2.0155435872022007e+07  2.2264183345956050e+07  2.2540493536153425e+07  2.2212521837377775e+07  1.9876227537682965e+07  1.9929553835263997e+07  2.2570690246179666e+07  2.1226967750601754e+07  1.9367061188207809e+07  2.3653756979725957e+07  2.3912963600179736e+07  2.1881524574795742e+07  2.0507847958446469e+07  2.2118617018598974e+07  2.1606350074937042e+07  2.2577918904867455e+07  2.1520664217968650e+07  2.0148770767413840e+07  2.0972546545970108e+07  1.9260040776006810e+07  2.1310218062488437e+07  2.2951205834254533e+07  2.2082816429094203e+07  2.2065288295994792e+07  2.2257022189126089e+07  2.2206942068528410e+07  2.1708698339346811e+07  2.0147058605453406e+07  2.2545583486374479e+07  2.1640113802035503e+07  2.1229835371866032e+07  2.2465367449654233e+07  2.1281838424187221e+07  2.2228075452079814e+07  2.1820701962098517e+07  2.0653767456449952e+07  2.1131331044795901e+07  2.3439335740579069e+07  2.2889356211616609e+07  2.3141085518902048e+07  2.0888414742325854e+07  2.2067752936470613e+07  2.2200447521329846e+07  2.2017426907090444e+07  1.9318458953692127e+07  1.9632275174828224e+07  1.9778022890180059e+07  2.3618936479951538e+07  2.3349784538990363e+07  2.0803277113902856e+07  2.0252788673071302e+07  2.1849404820752308e+07  2.0265058553509273e+07  2.1973368383452058e+07  2.2015160697647955e+07  2.0426627429164160e+07  2.0795179949572526e+07  2.2241773180121694e+07  2.2921678307598274e+07  2.2216951714214474e+07  1.9379337853116162e+07  1.9543212313385606e+07  1.9594314194699094e+07  2.0142754704321325e+07  2.2493850193385307e+07  2.1901380575445816e+07  2.2493461069890548e+07  2.2032579757114217e+07  2.0857189997418053e+07  2.1734807241758443e+07  1.8677121007985502e+07  1.9675118468511488e+07  2.0685520882870071e+07  2.3074804532275230e+07  2.0297155399929546e+07  1.9897889291379396e+07  1.9394518773295160e+07  1.8708061535896592e+07  1.9576631676220395e+07  1.9441151995294668e+07  2.1486884607942082e+07  1.9126504091216199e+07  2.3835883159383800e+07  2.3497446840815488e+07  1.9976180999483533e+07  2.3107262623455115e+07  2.2858930136904813e+07  2.3700371274964932e+07  2.0157820870863788e+07  1.8292401790163327e+07  1.8291189476298179e+07  2.4152554142311171e+07  2.0940829764622401e+07  2.0160107742448963e+07  2.1291942879931647e+07  2.0725021623407651e+07  2.4099693558422338e+07  1.9118619836996548e+07  2.1796827369606499e+07  1.9528698296435222e+07  1.9784396387627412e+07  2.0608381748907302e+07  2.0850243966436226e+07  2.0292162269649979e+07  2.0773351728464946e+07  1.9121088876803841e+07  2.2018491215301596e+07  2.1812798597844839e+07  2.1713649718711343e+07  2.0435641830816738e+07  2.0129796963284913e+07  2.1684837901783343e+07  2.4251312072268113e+07  1.8171429078126412e+07  2.2533514049401466e+07  2.0020421786481921e+07  2.0493758687957536e+07  2.2535441351820774e+07  1.8864508895356379e+07  1.8996015077027284e+07  1.8757390997056138e+07  2.0472518339279696e+07  2.1037585065194085e+07  2.1899483800824020e+07  2.1521473829456776e+07  2.0981900932491824e+07  2.1471572568189133e+07  2.1656306730665281e+07  2.1434303055496652e+07  1.9746938436494891e+07  2.0640880585705221e+07  1.9507562826782729e+07  2.1784169866185442e+07  1.9738255522455931e+07  2.1907273825537190e+07  2.1500860658465900e+07  2.1768260269299217e+07  2.1828206692888886e+07  2.2218281699119385e+07  2.2365728571230900e+07  2.1995587846315641e+07  2.0456763551439669e+07  2.2170377544032294e+07  1.8879504089291155e+07  2.0317734407359991e+07  2.0086491612370126e+07  2.3307755918126997e+07  2.2034382767692700e+07  2.0554495388303049e+07  1.9828156780333512e+07  2.0166073763490099e+07  1.9196496888546154e+07  2.2372673666081119e+07  2.1124505345382538e+07  2.0479920274677433e+07  1.9043316456531137e+07  2.0467500560486939e+07  1.9628830712018669e+07  2.2860097506802212e+07  2.2727960086210433e+07  2.2543917815259352e+07  2.2223870931077015e+07  2.2345117147721730e+07  2.2192848294138841e+07  1.9708382241403118e+07  2.0320685926299095e+07  2.2451173106742039e+07  1.8863965956185978e+07  2.2057088059979711e+07  2.2293002749764629e+07  2.3430078494690422e+07  2.1202250627480924e+07  2.1830759081315041e+07  1.9686916908269234e+07  1.9358230875393838e+07  2.2497850546418175e+07  2.2660533293762393e+07  2.4082104093399927e+07  2.2740605501642849e+07  2.0442786277084421e+07  2.2238974081033748e+07  2.2499182746881761e+07  2.0954786406622265e+07  2.2658357393452354e+07  2.1289558199568078e+07  2.1697633509648953e+07  2.0370921466035072e+07  2.1075636156650700e+07  1.9263464747966759e+07  1.9997331529169563e+07  1.9845059132750511e+07  2.0835915134121533e+07  2.1610435941473961e+07  2.2012716722825568e+07  1.9866364044212926e+07  1.9545710097602073e+07  1.9403200409726318e+07  1.9456973161476512e+07  2.1428929091399316e+07  2.1200704087813701e+07  2.0703839010339189e+07  2.1116506948720492e+07  2.3828376203503400e+07  2.0236671740930792e+07  2.0720050723251253e+07  2.2053985418523472e+07  2.1415096231684972e+07  2.0117545170214731e+07  1.8777828858014300e+07  1.8413475209631134e+07  1.8599811413837235e+07  2.3306867924165614e+07  1.9516335876023818e+07  1.9896892126972292e+07  1.9093604003397301e+07  1.9252539472181223e+07  1.8608989120607320e+07  2.0072478458748061e+07  2.0377770164322417e+07  2.1769659761934470e+07  2.2146924463714644e+07  2.2796214643125288e+07  1.9873066885064457e+07  2.1691124687517393e+07  2.1724691513543252e+07  2.0311583139123403e+07  2.0103441585434668e+07  2.2396791481768537e+07  2.1130927144137301e+07  2.3806372852805357e+07  2.2398644911737502e+07  2.0444414997800566e+07  2.1963864147425044e+07  2.2995329349515464e+07  2.2707415552103378e+07  2.3132445499159526e+07  2.1494146774649698e+07  1.9999778199187472e+07  1.9960552371117771e+07  2.0045023030796826e+07  2.1603456662403833e+07  2.2554023912157141e+07  2.1723231760016393e+07  1.9101266281239815e+07  2.0489658611157700e+07  2.3161044651764847e+07  2.1271466626196560e+07  2.0933174277422104e+07  2.2496627679774854e+07  2.3888340746595751e+07  2.2665364357759494e+07  1.9446656413047463e+07  2.1296108088082816e+07  2.2313587885897838e+07  1.9771660271732725e+07  1.9222666165736191e+07  2.1927121713810742e+07  1.9533838411143512e+07  2.1624312843402669e+07  2.1541015477610108e+07  2.2879167491910931e+07  2.2248159344416980e+07  1.9778420017967235e+07  2.2220678101733815e+07  2.2028678051825866e+07  1.9160263771034811e+07  1.9520479679968182e+07  2.0677158046702582e+07  2.1567095921991892e+07  2.2509050567360118e+07  2.2722946895739935e+07  2.2865586060347769e+07  2.1726818535834864e+07  2.0591340397642218e+07  2.0066875432628494e+07  2.1210149813343599e+07  1.9574453962933775e+07  2.2513801427949298e+07  2.1604078865913536e+07  1.9389483023216654e+07  2.2144358761732038e+07  2.1257662572326001e+07  2.2701341063096292e+07  2.2802060037618566e+07  2.3033424364851952e+07  1.9918919817128301e+07  2.2266984756161984e+07  2.2078228251783866e+07  2.1949164823638137e+07  2.3394175244717099e+07  1.9650990373695113e+07  2.2001965649363127e+07  1.9748722167083476e+07  2.2744230482507214e+07  2.1879321121317964e+07  2.2532614364817578e+07  2.2101728030362610e+07  2.2331983953455050e+07  2.1198915131351434e+07  2.1214539009531416e+07  2.1302211943348277e+07  2.2496057007125944e+07  2.2352220095918655e+07  2.2362177528525844e+07  2.0536871451478682e+07  2.0657960309358399e+07  2.0316300308772724e+07  2.2032052886437707e+07  2.0685551429941271e+07  2.1808886618984018e+07  1.9871444764406879e+07  2.3060029422542445e+07  2.2958888198507674e+07  2.3201969686209150e+07  2.1346701042734228e+07  2.1439957496038549e+07  1.7942392517457090e+07  2.0499882148832101e+07  2.0383142703499738e+07  2.1416597852424897e+07  1.8903220755314320e+07  2.0160453272817425e+07  2.0485811586759515e+07  1.9725788601808496e+07  2.4505239265337575e+07  2.4473646726612113e+07  1.8893791153639447e+07  2.1345411815272246e+07  2.2022176406685393e+07  2.1968940060578212e+07  2.1811885880167689e+07  2.0301493292226233e+07  1.8850964834129572e+07  2.1922941021308400e+07  2.3684140027332574e+07  2.2244851673442308e+07  2.2315370387103662e+07  2.2158397176291425e+07  1.9363980666057274e+07  2.1062984758549988e+07  2.0847353132516656e+07  1.8391015607407045e+07  1.8418194782449719e+07  1.8757561641971890e+07  1.8529991776158124e+07  2.3125907136493910e+07  2.2926494824611019e+07  1.9890982179675788e+07  2.1448437315627977e+07  2.0679757922467776e+07  2.2261808146246124e+07  2.2397248093544666e+07  2.0279195868103199e+07  2.0203553320013653e+07  1.9185525883924440e+07  2.0304977124634121e+07  2.1510375159076020e+07  1.8709128108081810e+07  1.9624891887126502e+07  2.1122230051290244e+07  2.3068923281782646e+07  2.3410758352454245e+07  2.1924395340420108e+07  1.9280901901899569e+07  1.9201015367970902e+07  2.3014476361032218e+07  2.1352388736323778e+07  2.0727859859289519e+07  2.2233738192375299e+07  1.8555726463200096e+07  2.3458756192158051e+07  2.3263079856406756e+07  2.3258225672966097e+07  1.7944883850595817e+07  2.2882376220937472e+07  2.1468796260807775e+07  2.0733959676452011e+07  2.1153888173199251e+07  2.2828628290333681e+07  2.2697310561945107e+07  2.2512329816642165e+07  2.2412631535626482e+07  2.2453579086072296e+07  2.0314296291247278e+07  2.1915205399571266e+07  2.1941183721455529e+07  2.1933566766781222e+07  1.9420084860924747e+07  1.9905757887188017e+07  2.1408196541034020e+07  2.1217340927633688e+07  1.9951736496304974e+07  2.2538246359736051e+07  2.2685319683575802e+07  2.2681316497033231e+07  2.3254815513673935e+07  2.0213846835971244e+07  1.8988743273422290e+07  2.2607027888291199e+07  2.3848880009489883e+07  1.9853129505944636e+07  1.8657131459770951e+07  2.0084013559634387e+07  2.4302593610484999e+07  1.8166025188892797e+07  1.9725407505897537e+07  2.3615607562796209e+07  1.9288473024330687e+07  2.0850508675395366e+07  2.1347062645867135e+07  2.1058465602279764e+07  2.2118432559227206e+07  2.2407848489734612e+07  2.1954752521566644e+07  2.1901460460419230e+07  2.3405284692245755e+07  2.3400978417987321e+07  2.3586811094895184e+07  2.0771951513758872e+07  2.0900560026126556e+07  2.1208691667804852e+07  2.1919460660248801e+07  2.2266961129127860e+07  1.8911211710268591e+07  1.9093641273799952e+07  2.2172665261961669e+07  2.2135100262458920e+07  2.0471411905934598e+07  2.0707410347059809e+07  2.0807613371369410e+07  2.2349330871929213e+07  1.9872870386418685e+07  1.9973185024440732e+07  2.0008754825473871e+07  2.3156762417449128e+07  2.2128679703918584e+07  2.2076015586984891e+07  2.2163833116831820e+07  2.0924522927237257e+07  1.9325204347560398e+07  2.2279142982241783e+07  2.1720313585268259e+07  2.0132067074502394e+07  2.0014483285221972e+07  1.9926543816965695e+07  1.9363168519054312e+07  2.1569858046624325e+07  2.1015317754334301e+07  2.1196853519120678e+07  1.9859834873969991e+07  2.0823406768591076e+07  1.8990079804979034e+07  2.1724982041461654e+07  2.1440990972306103e+07  2.1684178547045447e+07  1.8447519371763680e+07  2.1878324242832020e+07  2.0928056556162927e+07  1.9606616084437519e+07  2.2267396690323085e+07  2.0707305154479068e+07  2.3135464512770411e+07  2.1508903011827927e+07  2.1742536511477299e+07  2.3675498373741828e+07  1.8902230542423610e+07  2.1287744207141697e+07  1.9400077342939571e+07  2.1795596044734400e+07  2.1294479887921270e+07  2.0277112339841921e+07  2.2328221759493884e+07  2.1576051499984331e+07  2.1606204952101961e+07  2.2920139741477422e+07  2.0242393274322402e+07  1.9185460471784286e+07  1.9655125746233027e+07  1.8973035981397163e+07  1.9175255577539820e+07  1.8678115071440421e+07  1.8466150345462531e+07  1.9662502472597845e+07  1.9802364287837226e+07  2.1692748294409875e+07  1.9477162610848781e+07  2.0187659352694374e+07  2.0196306298262019e+07  2.0245598053546812e+07  2.2003226671875559e+07  1.8982395990309078e+07  2.1618558601275664e+07  2.1665347774770528e+07  2.1744999481593583e+07  2.2043645813668534e+07  2.2050881177612785e+07  1.8976932321543194e+07  1.8985414145345476e+07  1.9201055208868064e+07  2.2756444245932423e+07  2.2923478857799437e+07  2.0921700557210911e+07  2.1786231390688360e+07  1.9996172808665663e+07  2.1898820263700593e+07  1.9896810960427009e+07  2.0055613672893446e+07  1.9846669974099036e+07  2.0008209594390951e+07  2.2482939867667019e+07  2.0740983827231783e+07  1.8732154586815543e+07  2.0523291385674626e+07  1.9147144918865163e+07  2.2128394924716167e+07  2.2146969767349336e+07  2.2089232347469132e+07  2.0968644631415341e+07  2.1483195220393412e+07  2.1777594088433377e+07  1.9994003562730145e+07  2.1980102267172340e+07  2.1953410064261477e+07  2.3536881313396875e+07  2.2456674211169057e+07  2.1020203590999372e+07  2.1018526361298211e+07  2.0462328065103263e+07  1.9829655539194550e+07  2.2421861168464281e+07  2.0835828310985953e+07  2.0429084837156758e+07  1.9722735490604665e+07  2.1728000689654425e+07  2.2161128316139810e+07  2.1076790209027819e+07  2.1929115133965369e+07  2.1292333133727293e+07  2.3662024695765052e+07  2.3506222695076067e+07  1.9230509117352720e+07  1.9324492037562743e+07  2.0272947289965671e+07  2.3968722921155851e+07  2.4076754900358729e+07  2.3775424947925366e+07  1.9679904212890316e+07  1.9557690298341140e+07  1.9451535061554011e+07  2.0613240046860866e+07  2.0455801066687927e+07  2.0194221707397379e+07  2.2808693482323725e+07  1.9975759477714729e+07  2.0032179875845291e+07  2.0226549336770993e+07  2.2195730080911513e+07  2.1145311417724956e+07  2.2575380252717938e+07  2.2410797836868472e+07  2.2131531665810663e+07  2.2282952963325363e+07  2.2142993985165976e+07  2.2132270773084372e+07  2.2140173654809885e+07  2.2297423552156672e+07  2.2469302494935893e+07  2.3945745085529879e+07  2.1254196133368302e+07  2.2414032328276031e+07  2.1761432516047455e+07  2.0521346024815623e+07  1.9182807610410232e+07  1.8593288523320667e+07  2.3146977876642909e+07  2.2732144846940685e+07  2.2566055141809192e+07  2.2252214305502422e+07  1.9617246002902932e+07  2.0872479941397123e+07  2.4210251362242974e+07  2.0043300541489758e+07  1.8167661998216692e+07  2.3943212272264879e+07  1.8701889015463285e+07  2.0677092246603671e+07  2.1397327333814170e+07  1.9796105618889339e+07  2.2181633319688372e+07  2.3779413137889083e+07  2.2173959723595634e+07  1.8751647024125639e+07  2.0948761332507502e+07  2.1155654653650116e+07  1.9554888358979736e+07  2.3541722563103683e+07  2.0672328380738992e+07  2.3813869860835057e+07  1.9950583430225175e+07  2.2821589877209891e+07  1.9844867228107348e+07  2.3058461942581005e+07  2.0178045610335350e+07  2.1450645638671748e+07  2.1478119329178862e+07  2.2277857149327587e+07  2.0272972128418911e+07  2.0134234482635826e+07  1.9445567609023020e+07  1.9283511537420366e+07  2.0340175674638767e+07  1.9475665604860201e+07  1.8078641323532268e+07  2.0681035163277660e+07  2.0480635