<?xml version="1.0"?>
<VTKFile type="UnstructuredGrid"  version="0.1"  >
<UnstructuredGrid>
<Piece  NumberOfPoints="3002" NumberOfCells="5870">
<Points>
<DataArray  type="Float64"  NumberOfComponents="3"  format="ascii">323455.6100285493 6048753.88242996 0  323455.6100285493 5954782.59950515 0  405920.1480513444 5954782.59950515 0  405920.1480513444 6048753.88242996 0  405920.1480513444 6001768.240967555 0  323455.6100285493 6001768.240967555 0  364687.8790399469 5954782.59950515 0  364687.8790399469 6048753.88242996 0  364687.8790399469 5996367.117560402 0  323455.6100285493 6025261.061698757 0  382226.6271443229 6022560.499995181 0  405920.1480513444 5978275.420236353 0  323455.6100285493 5978275.420236353 0  353897.8957397301 6022560.499995181 0  344071.7445342481 5954782.59950515 0  385304.0135456456 5954782.59950515 0  405920.1480513444 6025261.061698757 0  354379.8117870975 5975574.858532775 0  381582.8168806895 5978840.396198289 0  384950.2598624413 6001768.240967555 0  344643.0480768835 6003429.02033719 0  344071.7445342481 6048753.88242996 0  385304.0135456456 6048753.88242996 0  339717.0321562298 5986078.187627405 0  337515.036058786 5969821.016310448 0  368062.2614420265 6013076.224998265 0  368062.2614420265 6032044.774992097 0  393987.6142659165 5988729.699941677 0  405920.1480513444 6013514.651333156 0  392856.2821527076 6034589.119828064 0  393514.9611654527 5968369.338068204 0  339399.8087404341 6032061.482581838 0  323455.6100285493 6013514.651333156 0  374995.9462927963 5965504.865595459 0  354379.8117870975 6037976.901948514 0  338123.9088969378 6017031.529131207 0  367397.3120126425 5982072.559192053 0  351882.5752379905 5991998.990225234 0  376945.425450199 5991232.708824487 0  392265.0061656896 6013300.936254065 0  357029.7426706699 6006608.947964352 0  380093.6207558212 6036880.127749795 0  323455.6100285493 5966529.009870751 0  405920.1480513444 6037007.472064359 0  405920.1480513444 5966529.009870751 0  323455.6100285493 6037007.472064359 0  333763.6772813987 6048753.88242996 0  405920.1480513444 5990021.830601954 0  323455.6100285493 5990021.830601954 0  362879.3643765316 5966837.319094267 0  348367.6438548031 5965604.161682394 0  334493.1989038612 5996935.948935225 0  395068.5043068817 6023875.372615605 0  348216.0324377587 6013504.844950221 0  379305.9090074943 6011603.390019651 0  372523.5158233726 6003480.000732267 0  395435.2039568929 5999384.346358113 0  395612.080798495 5954782.59950515 0  333763.6772813987 5954782.59950515 0  395612.080798495 6048753.88242996 0  374995.9462927963 6048753.88242996 0  374995.9462927963 5954782.59950515 0  354379.8117870975 6048753.88242996 0  354379.8117870975 5954782.59950515 0  335074.5981535012 6007206.680367459 0  391925.2695590468 5978591.908877409 0  371969.1707190623 6022560.499995181 0  383872.162544519 5969415.106147043 0  358038.7139835292 5984533.09712744 0  369699.869182786 5973102.2359358 0  369841.9126663716 6041099.453006387 0  343176.7440329155 5994428.220622956 0  362933.5332293962 6024385.235173292 0  330640.1760208776 5984148.625419154 0  348684.7494355051 5983110.856817525 0  399094.9690929834 6007537.420809742 0  345447.6324516311 5974162.84917082 0  332859.7749513451 6039150.972778062 0  344517.044630671 6024057.945416138 0  332973.1214415312 6025037.914505113 0  341428.0126373461 6040493.820728126 0  385874.264691618 5992757.40885039 0  350337.3662538711 6030387.535304286 0  359887.2373602368 6016186.250094838 0  377097.8989316926 6029115.217702097 0  338917.7109078235 5961484.016839475 0  329495.5261590715 5972402.215053552 0  336644.7280634616 5978216.610794215 0  330688.6715098422 5962480.256438018 0  359899.8039476132 6031963.415584587 0  399746.255941904 6030426.523907755 0  385511.6875144855 6030368.508996127 0  387377.735783329 6040763.821024337 0  398832.192399829 5974431.100387635 0  387992.9498994246 5962432.032572681 0  405920.1480513444 5984148.625419153 0  364925.7641745284 6005782.953640081 0  361769.877068089 6041226.651684469 0  398452.9199001931 6040850.732439541 0  398946.6205243983 5962252.502309519 0  362305.5577564609 5975984.89789681 0  356822.8065216601 5998470.186307689 0  386900.7115926162 5984820.732438302 0  329528.0119279922 6032067.230024892 0  331139.6939744562 6013813.572928222 0  398457.5876798834 5982541.698799337 0  405920.1480513444 6019387.856515957 0  398685.5166750694 6017257.578706384 0  348587.9424884976 6042755.309150081 0  369841.9126663716 5960143.732550304 0  380149.979919221 5960143.732550304 0  359533.8454135222 5960172.384722514 0  377147.8814772839 5972649.581024994 0  341756.3455763521 6010124.092444684 0  355615.8176864882 5966311.193813809 0  369144.4338274571 5989807.770003954 0  375185.9047422862 5983510.422041401 0  323455.6100285493 6007641.446150355 0  391856.7960121195 6005888.565703365 0  371978.0245217044 5996361.134308098 0  405920.1480513444 5995895.035784755 0  378877.1880032702 5998073.745937059 0  359056.6617417652 5991643.489540118 0  399278.8743430426 5993436.466134224 0  386116.8775939071 6009922.097099247 0  323455.6100285493 6019387.856515957 0  388994.7833819839 6019826.789191471 0  348897.6207366391 5998116.079250046 0  345456.3301153719 6035064.814295612 0  323455.6100285493 6042880.677247159 0  334124.3013408988 5990072.953472659 0  377097.8989316926 6018059.782440464 0  323455.6100285493 5995895.035784755 0  342871.8474798963 5980154.238874755 0  373596.9793292385 6035659.183886081 0  380149.979919221 6048753.88242996 0  376327.9292813152 6042294.581731233 0  329163.3548105369 6004704.843558955 0  350303.9432136903 6007093.032074522 0  383982.6552804571 6015912.664375832 0  345515.490569988 5988567.439252969 0  379019.812877927 6004678.052169549 0  365541.9137639466 6018750.691894444 0  349225.7781606728 5954782.59950515 0  352493.3399767278 5960815.406895458 0  363683.8130458911 5986976.225872464 0  386666.791301207 5975084.583584332 0  368937.6553346639 5966171.092344863 0  400003.9882214358 5968352.273777306 0  328776.0063842635 5992958.433193355 0  339958.4428758043 5999572.344589042 0  354577.7732363954 6012555.454074449 0  328609.6436549741 6048753.88242996 0  382053.0280278458 5988228.496807038 0  330708.6817934912 5978212.973348036 0  372084.7734679543 5978495.086505585 0  358568.2738174705 5971419.415228934 0  328931.2672829705 5998832.905089681 0  323455.6100285493 6031134.266881558 0  405920.1480513444 5972402.215053552 0  405920.1480513444 6031134.266881558 0  323455.6100285493 5972402.215053552 0  405920.1480513444 5960655.804687951 0  323455.6100285493 5960655.804687951 0  405920.1480513444 6007641.446150355 0  323455.6100285493 5984148.625419153 0  405920.1480513444 6042880.677247159 0  346648.7613474604 5960023.05127712 0  342415.3891593561 5966358.988213831 0  350507.6510228226 5971111.740321856 0  391773.9667214506 5994456.117700323 0  338875.8905424621 6026088.827345025 0  361429.1735454847 6010511.262533597 0  389395.7028803263 6025805.543023561 0  392895.6464692951 6043315.288173481 0  332846.8296575367 6019296.633131165 0  373337.4404588729 6009693.515402478 0  336544.3064612215 6043648.151399015 0  348610.2411382072 6019567.839754772 0  381943.4597763228 6042183.394750732 0  355630.0631288611 6028071.82801846 0  363941.5238882306 6035967.852698964 0  328179.67203552 6022271.326978176 0  401066.2857736665 5998807.415073814 0  344387.1099621175 6029612.545574771 0  393435.2235156003 5960233.556458537 0  400735.9970493424 6022675.638064924 0  393708.5772019727 6029179.837160029 0  400609.0696943338 5987857.851798974 0  361753.6614662939 6001152.171757337 0  400766.1144249197 6048753.88242996 0  353363.0524357285 6002630.165620538 0  343248.328463803 6018790.640008039 0  356419.8105951758 6043365.392189237 0  390234.385899412 6000759.497967276 0  368336.1168551637 6000220.532318851 0  328609.6436549741 5954782.59950515 0  387520.8298169724 6035372.992507171 0  400588.0280660195 6035823.299583429 0  329021.6598427091 6043194.252697862 0  393371.710206733 5983576.325812268 0  393638.9721728675 5973623.513063556 0  371727.9212466564 6017113.044457142 0  364687.2762977295 5959941.212693035 0  374995.9462927962 5960346.83186599 0  369841.9126663716 5954782.59950515 0  400766.1144249197 5954782.59950515 0  338917.7109078234 5954782.59950515 0  369841.9126663716 6048753.88242996 0  359533.8454135222 5954782.59950515 0  390458.0471720704 6048753.88242996 0  338917.7109078234 6048753.88242996 0  390458.0471720704 5954782.59950515 0  359533.8454135222 6048753.88242996 0  380149.979919221 5954782.59950515 0  349225.7781606728 6048753.88242996 0  339867.4956514095 6005339.817053361 0  333737.9460226952 6002130.523287664 0  336955.8140048417 6012008.440073739 0  377097.8989316926 6023232.32559834 0  371748.9790486701 6028016.629988787 0  338146.5171983215 5993298.164761053 0  355016.8390227688 6017610.913088997 0  393953.1528190996 6018968.416019509 0  335185.8133477239 5965142.63403323 0  328616.6041642396 5967263.80307608 0  380314.9487662361 5965460.362415641 0  354622.8993466098 6032976.142863722 0  328521.4725131759 6027215.026914048 0  334465.0783479523 6034070.534389696 0  328123.6212682287 6009699.206425843 0  381889.5169855529 5973936.741901617 0  359122.3484437474 6036790.002992895 0  386341.6533148278 5979963.279841923 0  400798.2159679119 6012477.871311778 0  388538.3765260249 5967461.292146791 0  340833.8784183678 5975728.708105717 0  355307.6239213505 5988552.151815021 0  362181.4274823388 5981261.937800813 0  353784.0322742948 5981044.538811012 0  358045.1698423899 5978741.391518688 0  328423.7350325213 6036912.015930048 0  366897.6876966125 6027277.723668203 0  347355.1745641421 5978532.307510624 0  376820.5060332146 5979033.270735624 0  349378.1778589479 6024378.632814493 0  327189.2282939323 6016451.253924556 0  338433.8773236172 6036753.902881841 0  350141.9760340559 5987605.90026687 0  363794.7083927878 5991713.491814731 0  350325.1285660182 6035273.515460094 0  382355.9358007369 5983507.499638396 0  327107.0747437811 59811
[...]
<PointData  Scalars="f_58-0"> 
<DataArray  type="Float64"  Name="f_58-0"  format="ascii">2.1493334703661714e+07  2.4705826982320279e+07  2.0367016964224029e+07  1.7937797668777063e+07  1.9296667268157538e+07  2.3057585387172751e+07  2.2728754519858945e+07  1.9614906661488757e+07  2.1664888688714512e+07  2.2478444914973971e+07  1.9784977658844575e+07  1.9858824389798675e+07  2.3833478044042945e+07  2.1133171036240011e+07  2.3637473436698969e+07  2.1990363410341542e+07  1.8849763102355830e+07  2.2457230098063264e+07  2.1414146841013610e+07  2.0248895577529922e+07  2.2233412585735340e+07  2.0510827489086222e+07  1.8787050937330421e+07  2.2742879562985051e+07  2.3455414187033113e+07  2.0707340836144358e+07  2.0038721970498871e+07  2.0187105410187174e+07  1.9118063400061101e+07  1.8984444267492320e+07  2.0912241866436340e+07  2.1609456272669967e+07  2.2783140248949915e+07  2.2155066140537295e+07  2.0422182633867785e+07  2.2150000695641924e+07  2.1966390332763694e+07  2.2180896714657564e+07  2.1180244957967136e+07  1.9638498996074453e+07  2.1652147926516112e+07  1.9411570688765783e+07  2.4298614017704815e+07  1.8384668882258255e+07  2.0093327513086013e+07  2.2021661892380539e+07  2.1013338911383707e+07  1.9556169406234846e+07  2.3394637107994251e+07  2.2446288577933390e+07  2.3056269078581054e+07  2.2731005127534486e+07  1.9269956520239703e+07  2.1838113900172491e+07  2.0196037890296806e+07  2.0880811597611509e+07  1.9783245868093200e+07  2.1181375670370519e+07  2.4179350546668652e+07  1.8381696174855769e+07  1.9179249958336391e+07  2.2414600310281388e+07  2.0045685191231046e+07  2.3120569611869913e+07  2.2477938609943841e+07  2.0658807140453093e+07  2.0174045897813704e+07  2.1631041355918303e+07  2.2150521611907024e+07  2.2114877898811255e+07  1.9670729116884045e+07  2.2442137158103254e+07  2.0521235515023027e+07  2.3250045222635373e+07  2.2442748482613213e+07  1.9470802599712465e+07  2.2875331810790304e+07  2.1527825614018202e+07  2.1634112900876354e+07  2.2138713799149916e+07  2.1029063483964738e+07  2.0535196189838760e+07  2.0998413782860190e+07  2.1068681233825032e+07  1.9778457370479900e+07  2.3692094507023320e+07  2.3769333051142506e+07  2.3165254878937591e+07  2.4084718595217939e+07  2.0382950443820287e+07  1.8884780990006648e+07  1.9422659859911632e+07  1.9002476806299545e+07  2.0333108360603284e+07  2.1621040527107593e+07  1.9714421442800570e+07  2.1256751070380673e+07  2.0001193693736069e+07  1.8530871014180474e+07  2.0663350576823775e+07  2.2234077002510682e+07  2.1891980958541673e+07  2.0791187754694007e+07  2.2008323970074449e+07  2.2482503710014511e+07  2.0138351024086386e+07  1.9006194186684616e+07  1.9317349669970728e+07  2.0529103981816493e+07  2.2435358417172320e+07  2.2106368480912827e+07  2.2759902205872010e+07  2.1879988133845523e+07  2.2185484510544438e+07  2.2713282044696145e+07  2.1698939162714422e+07  2.1614436001992680e+07  2.2916006382192302e+07  1.9809314931199633e+07  2.1274507705127988e+07  1.9410581127280589e+07  2.0738810386550665e+07  2.1980540923635151e+07  1.9765524406538557e+07  1.9963442905936293e+07  2.2643235160812248e+07  1.9609107292815484e+07  2.2184432015819494e+07  2.1087296265553925e+07  2.1752657341132309e+07  2.2906004759441853e+07  2.0100963716936082e+07  2.3215860845340006e+07  2.2778252834424205e+07  1.9709461813251220e+07  1.8975317276787709e+07  1.9357512374112178e+07  2.2749887629217763e+07  2.1957548436658718e+07  1.9896850578166805e+07  2.2440609160902757e+07  2.0438499073608059e+07  2.0608842378110439e+07  2.3367200595561244e+07  2.3025521041134018e+07  2.1960363042716756e+07  2.1195088963760376e+07  2.2303478625862457e+07  2.0411430642427381e+07  2.3062346427035183e+07  2.2468917254152883e+07  2.1579008696282279e+07  2.1254868794165220e+07  2.0983367015337501e+07  2.3474018154994234e+07  2.1905105346757259e+07  2.2448290832932640e+07  2.2901052910021834e+07  2.2272625274261672e+07  1.9977443969373886e+07  1.8632751315199744e+07  2.4069189945267659e+07  2.0224182760368042e+07  2.4510910909136038e+07  1.9207233134444654e+07  2.3602774471543077e+07  1.8151884847032111e+07  2.3335448947938260e+07  2.3332731173945088e+07  2.2752677612050962e+07  2.0116945564412091e+07  2.1874329675678998e+07  2.1245147420422167e+07  1.9420836407330025e+07  1.8696606879407763e+07  2.2297975525625937e+07  2.0547394527894296e+07  2.1120290607074283e+07  2.1569155251579855e+07  1.9142655015220013e+07  2.0769504658626817e+07  2.0080672157705188e+07  2.2394035978227165e+07  1.9549459544664379e+07  2.1438316344266493e+07  2.1225845951426316e+07  1.9121750434870891e+07  1.9141274497220833e+07  1.9869984721903302e+07  2.1615761605200384e+07  1.8156594681098145e+07  2.1935536541039553e+07  2.1869277433136199e+07  2.0152274542390469e+07  2.0009909113307957e+07  2.1338982629727837e+07  2.4447992932738129e+07  1.9179127993281279e+07  1.8633556762814593e+07  2.1491182490956083e+07  2.0397031397156309e+07  2.0705452330573000e+07  2.0360711516970500e+07  2.2587728916041002e+07  2.2284635034183111e+07  2.2568992217737429e+07  2.0733479000030868e+07  2.3910742872367255e+07  1.9395089566522297e+07  2.2909928889117844e+07  1.8597203601714257e+07  2.0764678958575845e+07  2.1650116996442329e+07  1.9832099533255227e+07  2.2231653490464844e+07  2.0268321728464849e+07  2.2356055601912208e+07  2.2637904638005707e+07  2.2311959202739239e+07  1.9953573799728245e+07  2.0016516557694145e+07  2.2662006252870992e+07  2.1307664132480368e+07  1.9444142497003511e+07  2.3755126378784951e+07  2.4016306179045539e+07  2.1953203347865056e+07  2.0610790019473448e+07  2.2232129279366378e+07  2.1721539737686500e+07  2.2681833158367373e+07  2.1581439938147303e+07  2.0252285484644711e+07  2.1025281542742942e+07  1.9331774345991112e+07  2.1380785590474982e+07  2.3045116732438080e+07  2.2140837418381475e+07  2.2121039686411750e+07  2.2328946949192792e+07  2.2274785216098882e+07  2.1826514830533389e+07  2.0234586529944539e+07  2.2630317499080211e+07  2.1688278970965106e+07  2.1327824000618562e+07  2.2573118935641173e+07  2.1396668662743509e+07  2.2300231379154075e+07  2.1840587405730724e+07  2.0761377006618567e+07  2.1170770936035305e+07  2.3540130245598372e+07  2.2985032259163909e+07  2.3240647735491544e+07  2.0902094210633136e+07  2.2136750730817195e+07  2.2271195639922168e+07  2.2074878573268030e+07  1.9421251045500569e+07  1.9736876983104747e+07  1.9877143530682299e+07  2.3720440055195056e+07  2.3449162825755306e+07  2.0885749623612139e+07  2.0303573725417446e+07  2.1962731944473103e+07  2.0297163695309181e+07  2.2079773747543231e+07  2.2099061166504145e+07  2.0468826420728728e+07  2.0796006627074171e+07  2.2323188266287837e+07  2.3013640931855705e+07  2.2291256556497835e+07  1.9442097232380539e+07  1.9606990511235643e+07  1.9652854418407850e+07  2.0180759177532014e+07  2.2578903920451861e+07  2.1994774179259263e+07  2.2580736005103424e+07  2.2104938997225523e+07  2.0914378865650643e+07  2.1762495859841511e+07  1.8775589206174649e+07  1.9742366396560147e+07  2.0801532199633595e+07  2.3169830098961182e+07  2.0375800930511974e+07  1.9961787371448688e+07  1.9465297926598612e+07  1.8808869230144750e+07  1.9662217332574889e+07  1.9533243177624658e+07  2.1499263939021941e+07  1.9218694822369695e+07  2.3937731663836468e+07  2.3595778419832099e+07  2.0021827512603842e+07  2.3205073916579507e+07  2.2953039410341613e+07  2.3802485600195959e+07  2.0251926040008243e+07  1.8393320357537735e+07  1.8390408139536552e+07  2.4256869718107861e+07  2.0923805520525109e+07  2.0271054589003939e+07  2.1318494843093049e+07  2.0837570090943113e+07  2.4203540409369122e+07  1.9216257835073255e+07  2.1870478618568931e+07  1.9622905487199675e+07  1.9886976349182840e+07  2.0698443520917576e+07  2.0924060153353725e+07  2.0366475533997245e+07  2.0849545088257991e+07  1.9197861771483108e+07  2.2077052963989258e+07  2.1839341178919028e+07  2.1755849127819493e+07  2.0511950352966469e+07  2.0194549271071654e+07  2.1760414249761656e+07  2.4355938468771942e+07  1.8272104509791438e+07  2.2616331695253249e+07  2.0088467919671189e+07  2.0563615160984453e+07  2.2619065173198286e+07  1.8953454876767054e+07  1.9084825350041833e+07  1.8852310037253231e+07  2.0489095892862741e+07  2.1104282845659964e+07  2.1974977046635721e+07  2.1603658040685296e+07  2.1017804786480177e+07  2.1502714396313488e+07  2.1650539020606007e+07  2.1419457431016825e+07  1.9853498756461564e+07  2.0694092054724921e+07  1.9590754072222449e+07  2.1887847600128934e+07  1.9830158837269388e+07  2.1975774272427600e+07  2.1620923451969747e+07  2.1887340993519224e+07  2.1884760273443963e+07  2.2321677978739973e+07  2.2467366263398360e+07  2.2046683331352450e+07  2.0566616979196072e+07  2.2236398652281258e+07  1.8977056725169469e+07  2.0378609191681731e+07  2.0143571713211756e+07  2.3404520547126811e+07  2.2151583863684312e+07  2.0572599016151831e+07  1.9880951108786110e+07  2.0236358438230757e+07  1.9277604674949784e+07  2.2451245875575054e+07  2.1243362244987622e+07  2.0594246289063293e+07  1.9144849328163881e+07  2.0482108142633460e+07  1.9688029546796750e+07  2.2948454447708607e+07  2.2814539478585511e+07  2.2626542950608239e+07  2.2299555977239955e+07  2.2423302313829742e+07  2.2269505019445237e+07  1.9767980035188209e+07  2.0390494757088859e+07  2.2531481495061141e+07  1.8964628425038159e+07  2.2131185183116574e+07  2.2366386425009910e+07  2.3529193355975747e+07  2.1275322442324400e+07  2.1859336321786888e+07  1.9760008044024728e+07  1.9438812291204397e+07  2.2578575576967388e+07  2.2744533921330117e+07  2.4185656507117622e+07  2.2828385375251919e+07  2.0490846118495353e+07  2.2334682609991521e+07  2.2600489602525491e+07  2.1051525753036350e+07  2.2750522282407835e+07  2.1392625582537726e+07  2.1789923900549326e+07  2.0464022881930187e+07  2.1188771191118505e+07  1.9357398884581309e+07  2.0056880627669398e+07  1.9914302541624729e+07  2.0898809211674839e+07  2.1666019410321340e+07  2.2061091689258900e+07  1.9949540800709475e+07  1.9604545904290117e+07  1.9501754200271264e+07  1.9557445700190146e+07  2.1487740289439451e+07  2.1317428010270610e+07  2.0738469139262557e+07  2.1071058985007934e+07  2.3930761465930272e+07  2.0345980613839608e+07  2.0794466788066357e+07  2.2151595617452379e+07  2.1455375075900663e+07  2.0224068621875390e+07  1.8879505704854403e+07  1.8509154825974856e+07  1.8694378510100007e+07  2.3407096401603624e+07  1.9575521481377687e+07  1.9952707804448396e+07  1.9164182885727018e+07  1.9321019523202583e+07  1.8706489141068570e+07  2.0118488624699976e+07  2.0427512969616335e+07  2.1809408130168729e+07  2.2217221773529757e+07  2.2894357063777074e+07  1.9934483072316702e+07  2.1757355391208183e+07  2.1801581592982143e+07  2.0344654910995021e+07  2.0185789235026341e+07  2.2492122300898891e+07  2.1126091656687576e+07  2.3909053186705213e+07  2.2477854747714844e+07  2.0508379625222981e+07  2.2027151114676572e+07  2.3093263510936692e+07  2.2802533257896453e+07  2.3225493900990911e+07  2.1458948513713121e+07  2.0050661509363681e+07  2.0032619685070004e+07  2.0116171753323931e+07  2.1674747854038090e+07  2.2659926878620617e+07  2.1788396041048381e+07  1.9181597359981060e+07  2.0549703261551529e+07  2.3257788934005238e+07  2.1381959102240134e+07  2.1040481589819752e+07  2.2590700304058578e+07  2.3991470284150489e+07  2.2755337436612483e+07  1.9550556516812231e+07  2.1384389657203536e+07  2.2389164152714640e+07  1.9824365968593054e+07  1.9322051498462137e+07  2.2014801872383870e+07  1.9612914251640145e+07  2.1741136814314332e+07  2.1525102060664508e+07  2.2969210844627839e+07  2.2322273867485527e+07  1.9874271199561883e+07  2.2293523039334014e+07  2.2083418603835456e+07  1.9262497438141529e+07  1.9592376180370592e+07  2.0680052946523145e+07  2.1673602841183208e+07  2.2600732709748674e+07  2.2812368223045457e+07  2.2958986645140953e+07  2.1838333785129357e+07  2.0663528871924423e+07  2.0109217561325714e+07  2.1174545764232144e+07  1.9635616956454434e+07  2.2598436713010315e+07  2.1723040978940651e+07  1.9457546946005754e+07  2.2231964100583032e+07  2.1329509110451709e+07  2.2804395651573911e+07  2.2903271642730422e+07  2.3134413729469288e+07  1.9975212279465463e+07  2.2381534396784671e+07  2.2193502128798041e+07  2.2065888920963351e+07  2.3494583160881076e+07  1.9707422167540394e+07  2.2066568891094539e+07  1.9809765377669532e+07  2.2849353787958823e+07  2.1959789789929219e+07  2.2614873080317419e+07  2.2166421374410082e+07  2.2439013112687219e+07  2.1260647719722461e+07  2.1270409607456930e+07  2.1367669779953595e+07  2.2582404651253216e+07  2.2431749168338351e+07  2.2444285707018781e+07  2.0555113083673261e+07  2.0692815797475982e+07  2.0356644831465237e+07  2.2110492858882234e+07  2.0795838503588054e+07  2.1829189804924227e+07  1.9979488148597758e+07  2.3153010200810477e+07  2.3058879969481189e+07  2.3302236680885110e+07  2.1422863359370727e+07  2.1515706127513237e+07  1.8043483100841735e+07  2.0577541788352966e+07  2.0458665179584030e+07  2.1532811415606901e+07  1.9004536749362458e+07  2.0233354161804210e+07  2.0559592738612723e+07  1.9806562092111893e+07  2.4610288255954400e+07  2.4578629382758681e+07  1.8985851413500831e+07  2.1465318952835228e+07  2.2071775548390638e+07  2.2014293807786163e+07  2.1875389866366122e+07  2.0340881830857601e+07  1.8935265838945247e+07  2.1958715609263558e+07  2.3784384509447660e+07  2.2323221635782231e+07  2.2392722077005945e+07  2.2231561291333884e+07  1.9438372984656870e+07  2.1163796996183362e+07  2.0905521814997531e+07  1.8492255010486785e+07  1.8519167283189252e+07  1.8857437147575669e+07  1.8629841740269721e+07  2.3225795761870246e+07  2.3024464414717525e+07  1.9962983553793535e+07  2.1546405716974095e+07  2.0794042671711911e+07  2.2347611089618430e+07  2.2484466422970895e+07  2.0368578322119761e+07  2.0250192278606284e+07  1.9250359415103376e+07  2.0418036806118939e+07  2.1619732414680019e+07  1.8801041574516255e+07  1.9724119969011474e+07  2.1227583720795516e+07  2.3162918238032464e+07  2.3509150413668606e+07  2.2033478262510985e+07  1.9369599318360087e+07  1.9287409289579406e+07  2.3105325262602102e+07  2.1331798141422912e+07  2.0741108376634594e+07  2.2304938062451221e+07  1.8656764545123186e+07  2.3559396382796422e+07  2.3361945197346788e+07  2.3357730452005919e+07  1.8046187518183697e+07  2.2985005208168685e+07  2.1587370566584464e+07  2.0757284490395319e+07  2.1165102826951083e+07  2.2918530921267159e+07  2.2785045279171292e+07  2.2594892191312183e+07  2.2522231971641995e+07  2.2565023671966899e+07  2.0416361431230240e+07  2.1964573946167901e+07  2.1999573410452344e+07  2.1988498806983490e+07  1.9479939889220718e+07  1.9954779588950701e+07  2.1453631619206145e+07  2.1250957068255693e+07  2.0017706681504931e+07  2.2637849054981016e+07  2.2783237439720839e+07  2.2781169914014176e+07  2.3352084602509163e+07  2.0290368535050217e+07  1.9066145695184354e+07  2.2715199721718989e+07  2.3951241381626133e+07  1.9921387186339606e+07  1.8747703858646195e+07  2.0158983425904877e+07  2.4407100078549888e+07  1.8265288028778709e+07  1.9789742100795779e+07  2.3716814824662961e+07  1.9349522455406215e+07  2.0925997606694967e+07  2.1421624124822170e+07  2.1134524155917469e+07  2.2185135347226687e+07  2.2486499675453249e+07  2.2021295105933007e+07  2.2003311528809268e+07  2.3501011036905404e+07  2.3497689791805614e+07  2.3688315238561779e+07  2.0890084000168536e+07  2.1016964885253191e+07  2.1326628584796973e+07  2.2017326433399301e+07  2.2340281220719337e+07  1.8997068195547584e+07  1.9178520027409069e+07  2.2237927319660246e+07  2.2211313393032633e+07  2.0570586385035578e+07  2.0808428109139089e+07  2.0899926578391526e+07  2.2440878685916815e+07  1.9964576385596856e+07  2.0080039250988111e+07  2.0118589852966256e+07  2.3253951267138992e+07  2.2233532158510599e+07  2.2184570891634483e+07  2.2274080096927643e+07  2.0959880836184785e+07  1.9390558859688681e+07  2.2388096459874760e+07  2.1764702900470536e+07  2.0232544683409676e+07  2.0111400200337667e+07  2.0029511625713892e+07  1.9424835585131329e+07  2.1575239509424027e+07  2.1134750368760746e+07  2.1316409776754428e+07  1.9912718824954208e+07  2.0941009836039018e+07  1.9089623477400441e+07  2.1756172032032792e+07  2.1451296153915800e+07  2.1693799843421403e+07  1.8544173741612729e+07  2.1989627162917063e+07  2.0936044504301153e+07  1.9666375824297756e+07  2.2380010887049496e+07  2.0703754982614510e+07  2.3229946625417296e+07  2.1628489885588910e+07  2.1817203761015456e+07  2.3774671192279499e+07  1.8995798358429689e+07  2.1381397157705821e+07  1.9504979803732462e+07  2.1864387887941275e+07  2.1407162969142035e+07  2.0305374419146109e+07  2.2403847662657633e+07  2.1566035155751359e+07  2.1693859282339316e+07  2.3020759056011263e+07  2.0279214979542550e+07  1.9274259461900156e+07  1.9715420310763016e+07  1.9075315210861821e+07  1.9246862694625206e+07  1.8772896870280351e+07  1.8564525271251209e+07  1.9733295793791074e+07  1.9890217749364965e+07  2.1806300579314794e+07  1.9538532472382914e+07  2.0247488223034114e+07  2.0265468942482162e+07  2.0279081923472457e+07  2.2116103201840650e+07  1.9065131541749123e+07  2.1714531137066919e+07  2.1766032804901082e+07  2.1798444099333044e+07  2.2119820825453479e+07  2.2126914716423843e+07  1.9074643789220937e+07  1.9080937477132630e+07  1.9294144059480786e+07  2.2842395045595024e+07  2.3011396643466912e+07  2.0909784070011973e+07  2.1802778891095370e+07  2.0042494780187014e+07  2.1940059715553582e+07  1.9945192885649536e+07  2.0096407422055546e+07  1.9896574080383483e+07  2.0098446927513935e+07  2.2564169991261195e+07  2.0807409085085370e+07  1.8833347825420488e+07  2.0617809125183560e+07  1.9245892387924131e+07  2.2189650915547602e+07  2.2210560998354718e+07  2.2150408669134099e+07  2.1014587638816487e+07  2.1597262985496998e+07  2.1892633625322275e+07  2.0075683160811123e+07  2.2051645294665858e+07  2.2027194765791140e+07  2.3637920781532910e+07  2.2560236940586444e+07  2.1104752310635366e+07  2.1096071789215907e+07  2.0539012043074273e+07  1.9938800859601043e+07  2.2501231029602528e+07  2.0904272795163129e+07  2.0495837702340994e+07  1.9784131251106754e+07  2.1798444462740783e+07  2.2227230545190416e+07  2.1146220361611567e+07  2.1996608333361264e+07  2.1411054744773682e+07  2.3763125030143801e+07  2.3606425272731788e+07  1.9305273939883824e+07  1.9419427158468679e+07  2.0387011377534471e+07  2.4072328282892261e+07  2.4180727267200455e+07  2.3878063317347605e+07  1.9764941515319902e+07  1.9646454426743276e+07  1.9540726032333840e+07  2.0694786244891547e+07  2.0513764834302146e+07  2.0252854090048470e+07  2.2897123921330102e+07  2.0052999218950316e+07  2.0137060167231649e+07  2.0280464603356328e+07  2.2309875154553555e+07  2.1253758288170062e+07  2.2657651624896545e+07  2.2490318320035409e+07  2.2207308141555745e+07  2.2360166873915069e+07  2.2217701926658392e+07  2.2232906292186789e+07  2.2236481740898330e+07  2.2396255044691667e+07  2.2556856390081242e+07  2.4048667554977316e+07  2.1374312325579293e+07  2.2492597277119201e+07  2.1837418952329084e+07  2.0637644634058639e+07  1.9286188379543789e+07  1.8694626359081008e+07  2.3238851702382416e+07  2.2816350546732854e+07  2.2647070172306255e+07  2.2329168638994567e+07  1.9724129323355358e+07  2.0948954489128768e+07  2.4314208783829611e+07  2.0154933467985068e+07  1.8268927362241134e+07  2.4045189628602460e+07  1.8801232261363108e+07  2.0683170018956598e+07  2.1474493572667863e+07  1.9857704478330903e+07  2.2273645037911858e+07  2.3881991116983965e+07  2.2285896885753777e+07  1.8847957707702827e+07  2.1067209603336256e+07  2.1204937840874322e+07  1.9646327036733512e+07  2.3643033494612642e+07  2.0728949866294067e+07  2.3916425216198556e+07  2.0009960434171192e+07  2.2918907653881915e+07  1.9899063307521567e+07  2.3158440463968709e+07  2.0212716158081047e+07  2.1519915145255912e+07  2.1550455162495933e+07  2.2355226945280321e+07  2.0377692225727908e+07  2.0187171319984734e+07  1.9522173569245324e+07  1.9364328184641186e+07  2.0450946062516637e+07  1.9562033939640176e+07  1.8179804350830827e+07  2.0785796117900785e+07  2.0586582771337