<?xml version="1.0"?>
<VTKFile type="UnstructuredGrid"  version="0.1"  >
<UnstructuredGrid>
<Piece  NumberOfPoints="3002" NumberOfCells="5870">
<Points>
<DataArray  type="Float64"  NumberOfComponents="3"  format="ascii">323455.6100285493 6048753.88242996 0  323455.6100285493 5954782.59950515 0  405920.1480513444 5954782.59950515 0  405920.1480513444 6048753.88242996 0  405920.1480513444 6001768.240967555 0  323455.6100285493 6001768.240967555 0  364687.8790399469 5954782.59950515 0  364687.8790399469 6048753.88242996 0  364687.8790399469 5996367.117560402 0  323455.6100285493 6025261.061698757 0  382226.6271443229 6022560.499995181 0  405920.1480513444 5978275.420236353 0  323455.6100285493 5978275.420236353 0  353897.8957397301 6022560.499995181 0  344071.7445342481 5954782.59950515 0  385304.0135456456 5954782.59950515 0  405920.1480513444 6025261.061698757 0  354379.8117870975 5975574.858532775 0  381582.8168806895 5978840.396198289 0  384950.2598624413 6001768.240967555 0  344643.0480768835 6003429.02033719 0  344071.7445342481 6048753.88242996 0  385304.0135456456 6048753.88242996 0  339717.0321562298 5986078.187627405 0  337515.036058786 5969821.016310448 0  368062.2614420265 6013076.224998265 0  368062.2614420265 6032044.774992097 0  393987.6142659165 5988729.699941677 0  405920.1480513444 6013514.651333156 0  392856.2821527076 6034589.119828064 0  393514.9611654527 5968369.338068204 0  339399.8087404341 6032061.482581838 0  323455.6100285493 6013514.651333156 0  374995.9462927963 5965504.865595459 0  354379.8117870975 6037976.901948514 0  338123.9088969378 6017031.529131207 0  367397.3120126425 5982072.559192053 0  351882.5752379905 5991998.990225234 0  376945.425450199 5991232.708824487 0  392265.0061656896 6013300.936254065 0  357029.7426706699 6006608.947964352 0  380093.6207558212 6036880.127749795 0  323455.6100285493 5966529.009870751 0  405920.1480513444 6037007.472064359 0  405920.1480513444 5966529.009870751 0  323455.6100285493 6037007.472064359 0  333763.6772813987 6048753.88242996 0  405920.1480513444 5990021.830601954 0  323455.6100285493 5990021.830601954 0  362879.3643765316 5966837.319094267 0  348367.6438548031 5965604.161682394 0  334493.1989038612 5996935.948935225 0  395068.5043068817 6023875.372615605 0  348216.0324377587 6013504.844950221 0  379305.9090074943 6011603.390019651 0  372523.5158233726 6003480.000732267 0  395435.2039568929 5999384.346358113 0  395612.080798495 5954782.59950515 0  333763.6772813987 5954782.59950515 0  395612.080798495 6048753.88242996 0  374995.9462927963 6048753.88242996 0  374995.9462927963 5954782.59950515 0  354379.8117870975 6048753.88242996 0  354379.8117870975 5954782.59950515 0  335074.5981535012 6007206.680367459 0  391925.2695590468 5978591.908877409 0  371969.1707190623 6022560.499995181 0  383872.162544519 5969415.106147043 0  358038.7139835292 5984533.09712744 0  369699.869182786 5973102.2359358 0  369841.9126663716 6041099.453006387 0  343176.7440329155 5994428.220622956 0  362933.5332293962 6024385.235173292 0  330640.1760208776 5984148.625419154 0  348684.7494355051 5983110.856817525 0  399094.9690929834 6007537.420809742 0  345447.6324516311 5974162.84917082 0  332859.7749513451 6039150.972778062 0  344517.044630671 6024057.945416138 0  332973.1214415312 6025037.914505113 0  341428.0126373461 6040493.820728126 0  385874.264691618 5992757.40885039 0  350337.3662538711 6030387.535304286 0  359887.2373602368 6016186.250094838 0  377097.8989316926 6029115.217702097 0  338917.7109078235 5961484.016839475 0  329495.5261590715 5972402.215053552 0  336644.7280634616 5978216.610794215 0  330688.6715098422 5962480.256438018 0  359899.8039476132 6031963.415584587 0  399746.255941904 6030426.523907755 0  385511.6875144855 6030368.508996127 0  387377.735783329 6040763.821024337 0  398832.192399829 5974431.100387635 0  387992.9498994246 5962432.032572681 0  405920.1480513444 5984148.625419153 0  364925.7641745284 6005782.953640081 0  361769.877068089 6041226.651684469 0  398452.9199001931 6040850.732439541 0  398946.6205243983 5962252.502309519 0  362305.5577564609 5975984.89789681 0  356822.8065216601 5998470.186307689 0  386900.7115926162 5984820.732438302 0  329528.0119279922 6032067.230024892 0  331139.6939744562 6013813.572928222 0  398457.5876798834 5982541.698799337 0  405920.1480513444 6019387.856515957 0  398685.5166750694 6017257.578706384 0  348587.9424884976 6042755.309150081 0  369841.9126663716 5960143.732550304 0  380149.979919221 5960143.732550304 0  359533.8454135222 5960172.384722514 0  377147.8814772839 5972649.581024994 0  341756.3455763521 6010124.092444684 0  355615.8176864882 5966311.193813809 0  369144.4338274571 5989807.770003954 0  375185.9047422862 5983510.422041401 0  323455.6100285493 6007641.446150355 0  391856.7960121195 6005888.565703365 0  371978.0245217044 5996361.134308098 0  405920.1480513444 5995895.035784755 0  378877.1880032702 5998073.745937059 0  359056.6617417652 5991643.489540118 0  399278.8743430426 5993436.466134224 0  386116.8775939071 6009922.097099247 0  323455.6100285493 6019387.856515957 0  388994.7833819839 6019826.789191471 0  348897.6207366391 5998116.079250046 0  345456.3301153719 6035064.814295612 0  323455.6100285493 6042880.677247159 0  334124.3013408988 5990072.953472659 0  377097.8989316926 6018059.782440464 0  323455.6100285493 5995895.035784755 0  342871.8474798963 5980154.238874755 0  373596.9793292385 6035659.183886081 0  380149.979919221 6048753.88242996 0  376327.9292813152 6042294.581731233 0  329163.3548105369 6004704.843558955 0  350303.9432136903 6007093.032074522 0  383982.6552804571 6015912.664375832 0  345515.490569988 5988567.439252969 0  379019.812877927 6004678.052169549 0  365541.9137639466 6018750.691894444 0  349225.7781606728 5954782.59950515 0  352493.3399767278 5960815.406895458 0  363683.8130458911 5986976.225872464 0  386666.791301207 5975084.583584332 0  368937.6553346639 5966171.092344863 0  400003.9882214358 5968352.273777306 0  328776.0063842635 5992958.433193355 0  339958.4428758043 5999572.344589042 0  354577.7732363954 6012555.454074449 0  328609.6436549741 6048753.88242996 0  382053.0280278458 5988228.496807038 0  330708.6817934912 5978212.973348036 0  372084.7734679543 5978495.086505585 0  358568.2738174705 5971419.415228934 0  328931.2672829705 5998832.905089681 0  323455.6100285493 6031134.266881558 0  405920.1480513444 5972402.215053552 0  405920.1480513444 6031134.266881558 0  323455.6100285493 5972402.215053552 0  405920.1480513444 5960655.804687951 0  323455.6100285493 5960655.804687951 0  405920.1480513444 6007641.446150355 0  323455.6100285493 5984148.625419153 0  405920.1480513444 6042880.677247159 0  346648.7613474604 5960023.05127712 0  342415.3891593561 5966358.988213831 0  350507.6510228226 5971111.740321856 0  391773.9667214506 5994456.117700323 0  338875.8905424621 6026088.827345025 0  361429.1735454847 6010511.262533597 0  389395.7028803263 6025805.543023561 0  392895.6464692951 6043315.288173481 0  332846.8296575367 6019296.633131165 0  373337.4404588729 6009693.515402478 0  336544.3064612215 6043648.151399015 0  348610.2411382072 6019567.839754772 0  381943.4597763228 6042183.394750732 0  355630.0631288611 6028071.82801846 0  363941.5238882306 6035967.852698964 0  328179.67203552 6022271.326978176 0  401066.2857736665 5998807.415073814 0  344387.1099621175 6029612.545574771 0  393435.2235156003 5960233.556458537 0  400735.9970493424 6022675.638064924 0  393708.5772019727 6029179.837160029 0  400609.0696943338 5987857.851798974 0  361753.6614662939 6001152.171757337 0  400766.1144249197 6048753.88242996 0  353363.0524357285 6002630.165620538 0  343248.328463803 6018790.640008039 0  356419.8105951758 6043365.392189237 0  390234.385899412 6000759.497967276 0  368336.1168551637 6000220.532318851 0  328609.6436549741 5954782.59950515 0  387520.8298169724 6035372.992507171 0  400588.0280660195 6035823.299583429 0  329021.6598427091 6043194.252697862 0  393371.710206733 5983576.325812268 0  393638.9721728675 5973623.513063556 0  371727.9212466564 6017113.044457142 0  364687.2762977295 5959941.212693035 0  374995.9462927962 5960346.83186599 0  369841.9126663716 5954782.59950515 0  400766.1144249197 5954782.59950515 0  338917.7109078234 5954782.59950515 0  369841.9126663716 6048753.88242996 0  359533.8454135222 5954782.59950515 0  390458.0471720704 6048753.88242996 0  338917.7109078234 6048753.88242996 0  390458.0471720704 5954782.59950515 0  359533.8454135222 6048753.88242996 0  380149.979919221 5954782.59950515 0  349225.7781606728 6048753.88242996 0  339867.4956514095 6005339.817053361 0  333737.9460226952 6002130.523287664 0  336955.8140048417 6012008.440073739 0  377097.8989316926 6023232.32559834 0  371748.9790486701 6028016.629988787 0  338146.5171983215 5993298.164761053 0  355016.8390227688 6017610.913088997 0  393953.1528190996 6018968.416019509 0  335185.8133477239 5965142.63403323 0  328616.6041642396 5967263.80307608 0  380314.9487662361 5965460.362415641 0  354622.8993466098 6032976.142863722 0  328521.4725131759 6027215.026914048 0  334465.0783479523 6034070.534389696 0  328123.6212682287 6009699.206425843 0  381889.5169855529 5973936.741901617 0  359122.3484437474 6036790.002992895 0  386341.6533148278 5979963.279841923 0  400798.2159679119 6012477.871311778 0  388538.3765260249 5967461.292146791 0  340833.8784183678 5975728.708105717 0  355307.6239213505 5988552.151815021 0  362181.4274823388 5981261.937800813 0  353784.0322742948 5981044.538811012 0  358045.1698423899 5978741.391518688 0  328423.7350325213 6036912.015930048 0  366897.6876966125 6027277.723668203 0  347355.1745641421 5978532.307510624 0  376820.5060332146 5979033.270735624 0  349378.1778589479 6024378.632814493 0  327189.2282939323 6016451.253924556 0  338433.8773236172 6036753.902881841 0  350141.9760340559 5987605.90026687 0  363794.7083927878 5991713.491814731 0  350325.1285660182 6035273.515460094 0  382355.9358007369 5983507.499638396 0  327107.0747437811 59811
[...]
<PointData  Scalars="f_78871-0"> 
<DataArray  type="Float64"  Name="f_78871-0"  format="ascii">2.4715983816658836e+07  2.4749074940433092e+07  2.4781679890083004e+07  2.4745364048532866e+07  2.4766249775179271e+07  2.4734312325961839e+07  2.4766134836160574e+07  2.4731300497178279e+07  2.4757733385332242e+07  2.4721695716889527e+07  2.4748565117269196e+07  2.4777725039400987e+07  2.4745103659195654e+07  2.4733279529570274e+07  2.4754199276605446e+07  2.4777299799491402e+07  2.4751919787612174e+07  2.4757092867107023e+07  2.4772203226930749e+07  2.4763421704398509e+07  2.4739402609605882e+07  2.4720589297930244e+07  2.4741383906210136e+07  2.4745668466110911e+07  2.4749943816545136e+07  2.4748388993756749e+07  2.4736765261552930e+07  2.4772346446480338e+07  2.4758792938074730e+07  2.4746265694734260e+07  2.4778792666362785e+07  2.4721910044770252e+07  2.4727701657098655e+07  2.4771604218850456e+07  2.4727005359941848e+07  2.4728525715556897e+07  2.4763782116682284e+07  2.4749833861253761e+07  2.4798390787371315e+07  2.4757452440881800e+07  2.4745790033389445e+07  2.4741087508935925e+07  2.4748071332512487e+07  2.4747097082310293e+07  2.4780678465107117e+07  2.4717490699959900e+07  2.4717192353933554e+07  2.4772830954366516e+07  2.4740369644114178e+07  2.4764145312264048e+07  2.4755581720421873e+07  2.4738615442461021e+07  2.4751606319571074e+07  2.4735370180816010e+07  2.4754737935085826e+07  2.4758380113192741e+07  2.4766918987339564e+07  2.4780543841131400e+07  2.4750413936267603e+07  2.4744340317265652e+07  2.4736841955281515e+07  2.4772283462559566e+07  2.4725569124598108e+07  2.4759758075409707e+07  2.4733092238595594e+07  2.4775815047684815e+07  2.4743831894086737e+07  2.4775354434494648e+07  2.4756857721487436e+07  2.4767308364203729e+07  2.4734918275256917e+07  2.4743482230870623e+07  2.4737630335088640e+07  2.4743647656811457e+07  2.4751373784655713e+07  2.4762265464574084e+07  2.4752349187231991e+07  2.4718020679706875e+07  2.4727482709507179e+07  2.4722904226307854e+07  2.4720320807593159e+07  2.4768917584277738e+07  2.4727457336161140e+07  2.4740982963557526e+07  2.4742789031760201e+07  2.4751718477409415e+07  2.4747302581551783e+07  2.4747402068316843e+07  2.4749311485757496e+07  2.4732135224199366e+07  2.4749120168927487e+07  2.4745721226516567e+07  2.4742953522872709e+07  2.4778416170167658e+07  2.4777956444067396e+07  2.4775512564939786e+07  2.4757702116019495e+07  2.4730386402336258e+07  2.4745624427853558e+07  2.4780760860135235e+07  2.4762057055862028e+07  2.4750428064663291e+07  2.4772244485022869e+07  2.4719411033822142e+07  2.4728314253698047e+07  2.4775674114953697e+07  2.4755185629516315e+07  2.4756028989360776e+07  2.4723055729737651e+07  2.4769129484105468e+07  2.4774800039013069e+07  2.4762732605477832e+07  2.4771576207526058e+07  2.4734008713374414e+07  2.4759675656450532e+07  2.4762803160785876e+07  2.4767901016023688e+07  2.4730993502562750e+07  2.4762249405159146e+07  2.4828120662781931e+07  2.4769716203921597e+07  2.4768719052712198e+07  2.4755080339065127e+07  2.4770740687632944e+07  2.4758181767625544e+07  2.4724543103769306e+07  2.4752497369619437e+07  2.4744894377017703e+07  2.4723366464578778e+07  2.4716362758026462e+07  2.4741915968517270e+07  2.4749258822160546e+07  2.4737473316296775e+07  2.4749308919804096e+07  2.4738370167017266e+07  2.4739278260436915e+07  2.4738047228285104e+07  2.4733121052227464e+07  2.4740634469284389e+07  2.4753427630287513e+07  2.4747443994108286e+07  2.4759744061769348e+07  2.4742722870900564e+07  2.4756813088483673e+07  2.4758416473457716e+07  2.4759948550625198e+07  2.4775205766049620e+07  2.4767998899198517e+07  2.4779982316677142e+07  2.4739352539159257e+07  2.4739245514502916e+07  2.4739953048319530e+07  2.4716296785757031e+07  2.4769413516270373e+07  2.4745833980086431e+07  2.4767511303386312e+07  2.4760646981300712e+07  2.4736339131977107e+07  2.4719312017673995e+07  2.4779454548611298e+07  2.4749172836398479e+07  2.4746832508362550e+07  2.4781417174122144e+07  2.4748831788978271e+07  2.4762549392110188e+07  2.4742948709097277e+07  2.4745801015721060e+07  2.4755275598822597e+07  2.4752531317477345e+07  2.4755805422365490e+07  2.4769112008118317e+07  2.4724176745654009e+07  2.4746231814454582e+07  2.4749204610416181e+07  2.4744122177029196e+07  2.4725710241875056e+07  2.4753728761785340e+07  2.4718207956945892e+07  2.4731972413341481e+07  2.4740615689338766e+07  2.4731402295081601e+07  2.4732983204598706e+07  2.4723375387812331e+07  2.4767868131121818e+07  2.4724874608786229e+07  2.4779830078590613e+07  2.4753071848038394e+07  2.4748646178257655e+07  2.4773642588388175e+07  2.4754901393072560e+07  2.4745110621143840e+07  2.4745481037857879e+07  2.4729684058827106e+07  2.4727044215492759e+07  2.4765202978103563e+07  2.4828398135476582e+07  2.4749413422174316e+07  2.4744454918768182e+07  2.4747183807472184e+07  2.4716684980769061e+07  2.4774405017973784e+07  2.4777657346610095e+07  2.4747327114533629e+07  2.4765975238103472e+07  2.4772096973740477e+07  2.4769295304046907e+07  2.4781382819065589e+07  2.4752038991276689e+07  2.4734145069959905e+07  2.4762910273006462e+07  2.4743092989044365e+07  2.4718645023755852e+07  2.4779171986844819e+07  2.4728395387404047e+07  2.4774977645091016e+07  2.4722921447305843e+07  2.4735953112397991e+07  2.4735576498814646e+07  2.4730948182090286e+07  2.4745967300687991e+07  2.4740646521969885e+07  2.4741750819499843e+07  2.4736923884440497e+07  2.4754221008215714e+07  2.4750041369837217e+07  2.4748289399488404e+07  2.4774362710800096e+07  2.4728741263991997e+07  2.4721152917220727e+07  2.4719735636213943e+07  2.4730130967758484e+07  2.4773570855727635e+07  2.4729980991937336e+07  2.4773714815791950e+07  2.4759245858862747e+07  2.4777476452479210e+07  2.4749772247915648e+07  2.4753578493317056e+07  2.4760618847240813e+07  2.4755180215242811e+07  2.4758593938852932e+07  2.4717813932950065e+07  2.4738355141395260e+07  2.4752133273878232e+07  2.4769929425168369e+07  2.4729760512466192e+07  2.4726272399098374e+07  2.4720111479423519e+07  2.4750556218447909e+07  2.4758573703082427e+07  2.4725654952566110e+07  2.4771122451629359e+07  2.4744281875026714e+07  2.4744213513937153e+07  2.4741500313796826e+07  2.4754225848178145e+07  2.4769557023507826e+07  2.4764608326586623e+07  2.4765031902263172e+07  2.4735764241272975e+07  2.4732249101893134e+07  2.4735332478478093e+07  2.4748715083300073e+07  2.4748091793527182e+07  2.4737053624838561e+07  2.4751433353021022e+07  2.4721061081160568e+07  2.4766515672308154e+07  2.4725659254846971e+07  2.4737398821180381e+07  2.4771123433603968e+07  2.4776820297103569e+07  2.4741822749243375e+07  2.4753740856817015e+07  2.4746342869928621e+07  2.4765035102642830e+07  2.4760466683113657e+07  2.4764177639463045e+07  2.4760035600399233e+07  2.4748600737745985e+07  2.4732514337558497e+07  2.4744606004191283e+07  2.4742499652927030e+07  2.4744948567700624e+07  2.4764998082911998e+07  2.4745282843428578e+07  2.4755106340058379e+07  2.4719724727425251e+07  2.4751355256048877e+07  2.4740948345651820e+07  2.4776579723358225e+07  2.4758122655601107e+07  2.4742813174375895e+07  2.4745657327115867e+07  2.4743198214799948e+07  2.4766406498028249e+07  2.4746562496760767e+07  2.4751071104275439e+07  2.4753338562417284e+07  2.4761811597869340e+07  2.4745474077036470e+07  2.4746415016307916e+07  2.4746142116892707e+07  2.4735124129202351e+07  2.4744947336066503e+07  2.4746252138781410e+07  2.4748638992196690e+07  2.4762746849889889e+07  2.4724696848865975e+07  2.4769067066574432e+07  2.4722303914770741e+07  2.4749753496072982e+07  2.4742458572783370e+07  2.4776208744366340e+07  2.4740841715550002e+07  2.4732923197562136e+07  2.4734646576293066e+07  2.4779800687511455e+07  2.4780788535460457e+07  2.4780956996575493e+07  2.4757046365538735e+07  2.4748566669501044e+07  2.4754448631705079e+07  2.4748801207617123e+07  2.4781419992545284e+07  2.4777251596222393e+07  2.4778213155915540e+07  2.4749106752051104e+07  2.4745513092200965e+07  2.4758372814935088e+07  2.4778558946536735e+07  2.4778950272006575e+07  2.4754607299129669e+07  2.4751014301497102e+07  2.4750233524635751e+07  2.4747456891900495e+07  2.4765216937936477e+07  2.4776991669899859e+07  2.4776604160354927e+07  2.4736324322887927e+07  2.4749700785478041e+07  2.4750056837971862e+07  2.4761792992203824e+07  2.4764323333608396e+07  2.4729905762826312e+07  2.4774072699741423e+07  2.4748107614283845e+07  2.4726917518861670e+07  2.4740046628774751e+07  2.4772592158778030e+07  2.4716090647607811e+07  2.4716841481854551e+07  2.4769670359971732e+07  2.4728454444795977e+07  2.4730615027654514e+07  2.4751796037991479e+07  2.4724695318585310e+07  2.4754183752962261e+07  2.4744679369863577e+07  2.4776005006864358e+07  2.4774055928632349e+07  2.4753588839694656e+07  2.4718304072890051e+07  2.4757253024256673e+07  2.4769276531143885e+07  2.4779401067660730e+07  2.4753701915232193e+07  2.4766227618073259e+07  2.4717139770830769e+07  2.4721323307480115e+07  2.4739039316316072e+07  2.4762714135202173e+07  2.4772129107995987e+07  2.4760544964425195e+07  2.4760568460237470e+07  2.4762635280263301e+07  2.4770365827798814e+07  2.4770831959642064e+07  2.4773625720425084e+07  2.4759586344676156e+07  2.4744091296429954e+07  2.4761744234804463e+07  2.4741688157126240e+07  2.4773328336517956e+07  2.4759514911305849e+07  2.4751026735368092e+07  2.4778747879495393e+07  2.4762507101158157e+07  2.4751306238392670e+07  2.4751969407170478e+07  2.4767687195483901e+07  2.4764399383428112e+07  2.4747509566919282e+07  2.4757254161752176e+07  2.4749989636604998e+07  2.4733419968225021e+07  2.4731932455543127e+07  2.4730740634163667e+07  2.4743333315526735e+07  2.4727189165006123e+07  2.4732478760737687e+07  2.4734324214886155e+07  2.4721455941183731e+07  2.4743881860044509e+07  2.4752284900520921e+07  2.4750485268066086e+07  2.4776314651062086e+07  2.4771747337170169e+07  2.4756250522816811e+07  2.4743236509021547e+07  2.4766140178694598e+07  2.4738974338729680e+07  2.4736961127209391e+07  2.4743622495821849e+07  2.4718779424175732e+07  2.4770558376202509e+07  2.4862698895388186e+07  2.4750259932026882e+07  2.4725743557687376e+07  2.4740209513473623e+07  2.4731040397174560e+07  2.4770177367343057e+07  2.4728197061029866e+07  2.4740367292908143e+07  2.4748038402699031e+07  2.4748417317639235e+07  2.4742880091561064e+07  2.4769890837428957e+07  2.4772258608090792e+07  2.4760664339511588e+07  2.4761494878997464e+07  2.4746357628075916e+07  2.4757219171686038e+07  2.4772809502955988e+07  2.4766549921240970e+07  2.4767420579812121e+07  2.4738293838359553e+07  2.4775203843309674e+07  2.4741952631694917e+07  2.4738534329358298e+07  2.4756918646379299e+07  2.4741055744114559e+07  2.4735390079402141e+07  2.4788525732604448e+07  2.4749086344768807e+07  2.4754095497067548e+07  2.4777045687437791e+07  2.4769401960544739e+07  2.4742353923590425e+07  2.4740442286109846e+07  2.4757070941258676e+07  2.4811805957857665e+07  2.4770752131672129e+07  2.4780126587131489e+07  2.4746489186844483e+07  2.4776447338346593e+07  2.4728162622896589e+07  2.4773388392188638e+07  2.4755045369419929e+07  2.4746007212074462e+07  2.4749740976373181e+07  2.4723005551652089e+07  2.4725313912086450e+07  2.4737683611840416e+07  2.4747491203731362e+07  2.4747528156265035e+07  2.4733872362494167e+07  2.4733971318622328e+07  2.4762964087677330e+07  2.4764490997305486e+07  2.4739873831244584e+07  2.4735201321274571e+07  2.4750300359738458e+07  2.4718559570515506e+07  2.4806617134327255e+07  2.4757463303213056e+07  2.4765757730124772e+07  2.4737362238822788e+07  2.4748487952398468e+07  2.4762952836731076e+07  2.4737348282991529e+07  2.4755163835139647e+07  2.4760286573764320e+07  2.4725202591708086e+07  2.4739916747527406e+07  2.4750950104581632e+07  2.4748082048138771e+07  2.4722196367647473e+07  2.4779629281652857e+07  2.4767183974546000e+07  2.4822994273974050e+07  2.4774230175933201e+07  2.4750421642421652e+07  2.4716941585050050e+07  2.4760161378754105e+07  2.4736905318408292e+07  2.4739888174031962e+07  2.4731625631899968e+07  2.4734435710712947e+07  2.4735908738623280e+07  2.4755736666048363e+07  2.4720432090566680e+07  2.4719804653294928e+07  2.4718664111320961e+07  2.4741708047337841e+07  2.4768339102280095e+07  2.4745273989726495e+07  2.4757404545859903e+07  2.4729337520492148e+07  2.4737867588858590e+07  2.4764271723451037e+07  2.4765231360825162e+07  2.4726406918294217e+07  2.4742946295266330e+07  2.4773772695667550e+07  2.4775832732065216e+07  2.4746471770968869e+07  2.4749464329676028e+07  2.4745474829759538e+07  2.4767034978480250e+07  2.4751566017389785e+07  2.4754081989889555e+07  2.4739906497182567e+07  2.4723904017285470e+07  2.4760842005847573e+07  2.4728079042967487e+07  2.4756121489690986e+07  2.4737619091039747e+07  2.4738958231878493e+07  2.4779926194105987e+07  2.4779302766081918e+07  2.4745468868594956e+07  2.4740046075704768e+07  2.4781163415068325e+07  2.4719053778024666e+07  2.4740394689249773e+07  2.4780373129250348e+07  2.4780372888917688e+07  2.4746349261712715e+07  2.4749016624713954e+07  2.4749158085607830e+07  2.4748641082329568e+07  2.4716227600559846e+07  2.4759135547498997e+07  2.4761502891434841e+07  2.4743403912371118e+07  2.4769603114643890e+07  2.4753498540185634e+07  2.4757509075054526e+07  2.4752168791387212e+07  2.4744016905603807e+07  2.4768175139430743e+07  2.4769838161295783e+07  2.4756109336802848e+07  2.4728595124305267e+07  2.4775099656330630e+07  2.4743781628835417e+07  2.4744351534735210e+07  2.4743586089358173e+07  2.4744958015770197e+07  2.4740078440494303e+07  2.4740820671737894e+07  2.4748322864397727e+07  2.4729654814888969e+07  2.4721099105277922e+07  2.4739510525244858e+07  2.4741289999844171e+07  2.4736559134999067e+07  2.4770977703338273e+07  2.4764413764437333e+07  2.4722625961913846e+07  2.4723553372282181e+07  2.4749732117821995e+07  2.4736539874848451e+07  2.4726157654537398e+07  2.4753927757823326e+07  2.4752240770639930e+07  2.4723900286197335e+07  2.4747386304322835e+07  2.4749920205970023e+07  2.4758821226778124e+07  2.4824036341613583e+07  2.4756107571526051e+07  2.4762663640995115e+07  2.4743500409699403e+07  2.4746981300651368e+07  2.4747077906846844e+07  2.4744798634231232e+07  2.4745305138990015e+07  2.4732664833356734e+07  2.4717263868808717e+07  2.4769091893351037e+07  2.4767972744312756e+07  2.4755428879281648e+07  2.4754095661463063e+07  2.4756397290732261e+07  2.4724591869408719e+07  2.4723062471968025e+07  2.4729991645815883e+07  2.4765575545830011e+07  2.4768016956060551e+07  2.4747863391125206e+07  2.4771323794769261e+07  2.4767903397663582e+07  2.4746962296436168e+07  2.4749513884425282e+07  2.4777638795226052e+07  2.4733737810052067e+07  2.4736977143800717e+07  2.4734952410399552e+07  2.4751186942727786e+07  2.4781606279663540e+07  2.4756963131611913e+07  2.4726090784979686e+07  2.4746023819702361e+07  2.4778640832300272e+07  2.4750473218063287e+07  2.4781115255979482e+07  2.4748513765185043e+07  2.4746347943698917e+07  2.4776684164830092e+07  2.4744079181334764e+07  2.4768017333490558e+07  2.4780485717312481e+07  2.4778980912678890e+07  2.4780391037995573e+07  2.4747703121051941e+07  2.4758626385652222e+07  2.4770982696482401e+07  2.4728160553539716e+07  2.4755456688799083e+07  2.4754618268503055e+07  2.4745220189105701e+07  2.4717851087329738e+07  2.4719235082041770e+07  2.4717844374027554e+07  2.4730357102652282e+07  2.4753153304509174e+07  2.4752637994022645e+07  2.4752181980762281e+07  2.4756984517111082e+07  2.4742502735133085e+07  2.4730884385833330e+07  2.4729191983807951e+07  2.4733066127068419e+07  2.4737289020789623e+07  2.4738789648896933e+07  2.4728680325653881e+07  2.4726044120459091e+07  2.4748468070134196e+07  2.4727103759768590e+07  2.4724533368488166e+07  2.4723579344207618e+07  2.4770831274200395e+07  2.4763226676164560e+07  2.4724796587995071e+07  2.4768270725986179e+07  2.4731881347976077e+07  2.4734711331636075e+07  2.4731697092715517e+07  2.4766671322517365e+07  2.4764825138160326e+07  2.4716670692253891e+07  2.4716542012112550e+07  2.4760079943433054e+07  2.4718304418877501e+07  2.4741869721097190e+07  2.4751529432945281e+07  2.4760256578424834e+07  2.4755213985536020e+07  2.4747510856412161e+07  2.4722423603376810e+07  2.4768902573105805e+07  2.4762335005765714e+07  2.4721982576702632e+07  2.4762314374603651e+07  2.4754683613347948e+07  2.4716463101040568e+07  2.4777236922187842e+07  2.4753051175428025e+07  2.4747470224734504e+07  2.4731704776603088e+07  2.4732739700651269e+07  2.4774007420868788e+07  2.4721572434442222e+07  2.4761726858670980e+07  2.4755927175248105e+07  2.4762826008535355e+07  2.4734293449950669e+07  2.4736151196550779e+07  2.4768084883539569e+07  2.4748381381571714e+07  2.4773507182361562e+07  2.4738101676138245e+07  2.4759899786840037e+07  2.4748001072999161e+07  2.4746343266439140e+07  2.4753152216776207e+07  2.4741571920311317e+07  2.4720857939410172e+07  2.4764489685608495e+07  2.4749078283090174e+07  2.4745513251259156e+07  2.4758745786954962e+07  2.4721494960360449e+07  2.4754162482458957e+07  2.4730673599016223e+07  2.4728398235461995e+07  2.4746018293546472e+07  2.4776191886809967e+07  2.4775467806932636e+07  2.4743757859790508e+07  2.4745394550200354e+07  2.4745172797242220e+07  2.4762711672929917e+07  2.4761312690266147e+07  2.4831614534784835e+07  2.4757004140642587e+07  2.4759966118718851e+07  2.4752235769319605e+07  2.4763352227241099e+07  2.4763612085613452e+07  2.4766128260495160e+07  2.4738261068981152e+07  2.4760084124287415e+07  2.4742725264924910e+07  2.4741915989011038e+07  2.4732973007837560e+07  2.4741169181787141e+07  2.4758901474241950e+07  2.4760532108367849e+07  2.4763423950816639e+07  2.4772436590711769e+07  2.4720540115745362e+07  2.4719851640242852e+07  2.4742475011443689e+07  2.4772977570675980e+07  2.4774680559572201e+07  2.4747951316767752e+07  2.4729746584811002e+07  2.4735775398843363e+07  2.4738315197297186e+07  2.4781596584921598e+07  2.4726986773440156e+07  2.4769289190144222e+07  2.4777967776663844e+07  2.4777971538472150e+07  2.4774710461443800e+07  2.4775260952135310e+07  2.4752431755850289e+07  2.4777767660622001e+07  2.4743074067607168e+07  2.4717193280103367e+07  2.4750778077106852e+07  2.4750020998259664e+07  2.4757538136963505e+07  2.4742505271006137e+07  2.4721719382613864e+07  2.4748801783861365e+07  2.4748219052857231e+07  2.4747904934919976e+07  2.4744595121660318e+07  2.4743945519038316e+07  2.4744988867326539e+07  2.4738062202195860e+07  2.4775229251322489e+07  2.4775018315449107e+07  2.4758982625982497e+07  2.4744711661265921e+07  2.4729773204822507e+07  2.4773490689979810e+07  2.4720734017727159e+07  2.4724371864427291e+07  2.4766092374492932e+07  2.4767500645662595e+07  2.4773499918473989e+07  2.4770634024951365e+07  2.4771942688594002e+07  2.4729730709100977e+07  2.4732267859512959e+07  2.4732000677476563e+07  2.4743096838207174e+07  2.4750299106688622e+07  2.4716060479938466e+07  2.4770815983199544e+07  2.4778294970351677e+07  2.4719559253105193e+07  2.4735516234080218e+07  2.4742286952150822e+07  2.4758249574639384e+07  2.4764518146743100e+07  2.4767729025255192e+07  2.4773669289880663e+07  2.4729849691036385e+07  2.4781031884810753e+07  2.4749837248771802e+07  2.4724222513300769e+07  2.4744791080027744e+07  2.4751153950701945e+07  2.4744446072271559e+07  2.4769442902687985e+07  2.4738069280757271e+07  2.4755801668873411e+07  2.4734973284401182e+07  2.4746883710261866e+07  2.4722380173259642e+07  2.4746459685333509e+07  2.4717538994806822e+07  2.4772656739556316e+07  2.4742322694626037e+07  2.4746224342717078e+07  2.4745897668574534e+07  2.4749701783030096e+07  2.4774446473829847e+07  2.4739800193710342e+07  2.4770669021822304e+07  2.4738812228454292e+07  2.4764974178444136e+07  2.4776464162495121e+07  2.4777512109450065e+07  2.4772269953064863e+07  2.4728619497524239e+07  2.4752550863969516e+07  2.4753333117877968e+07  2.4752831415551823e+07  2.4724366571178902e+07  2.4746523634855065e+07  2.4745284449475184e+07  2.4727250487999134e+07  2.4727099