<?xml version="1.0"?>
<VTKFile type="UnstructuredGrid"  version="0.1"  >
<UnstructuredGrid>
<Piece  NumberOfPoints="3002" NumberOfCells="5870">
<Points>
<DataArray  type="Float64"  NumberOfComponents="3"  format="ascii">323455.6100285493 6048753.88242996 0  323455.6100285493 5954782.59950515 0  405920.1480513444 5954782.59950515 0  405920.1480513444 6048753.88242996 0  405920.1480513444 6001768.240967555 0  323455.6100285493 6001768.240967555 0  364687.8790399469 5954782.59950515 0  364687.8790399469 6048753.88242996 0  364687.8790399469 5996367.117560402 0  323455.6100285493 6025261.061698757 0  382226.6271443229 6022560.499995181 0  405920.1480513444 5978275.420236353 0  323455.6100285493 5978275.420236353 0  353897.8957397301 6022560.499995181 0  344071.7445342481 5954782.59950515 0  385304.0135456456 5954782.59950515 0  405920.1480513444 6025261.061698757 0  354379.8117870975 5975574.858532775 0  381582.8168806895 5978840.396198289 0  384950.2598624413 6001768.240967555 0  344643.0480768835 6003429.02033719 0  344071.7445342481 6048753.88242996 0  385304.0135456456 6048753.88242996 0  339717.0321562298 5986078.187627405 0  337515.036058786 5969821.016310448 0  368062.2614420265 6013076.224998265 0  368062.2614420265 6032044.774992097 0  393987.6142659165 5988729.699941677 0  405920.1480513444 6013514.651333156 0  392856.2821527076 6034589.119828064 0  393514.9611654527 5968369.338068204 0  339399.8087404341 6032061.482581838 0  323455.6100285493 6013514.651333156 0  374995.9462927963 5965504.865595459 0  354379.8117870975 6037976.901948514 0  338123.9088969378 6017031.529131207 0  367397.3120126425 5982072.559192053 0  351882.5752379905 5991998.990225234 0  376945.425450199 5991232.708824487 0  392265.0061656896 6013300.936254065 0  357029.7426706699 6006608.947964352 0  380093.6207558212 6036880.127749795 0  323455.6100285493 5966529.009870751 0  405920.1480513444 6037007.472064359 0  405920.1480513444 5966529.009870751 0  323455.6100285493 6037007.472064359 0  333763.6772813987 6048753.88242996 0  405920.1480513444 5990021.830601954 0  323455.6100285493 5990021.830601954 0  362879.3643765316 5966837.319094267 0  348367.6438548031 5965604.161682394 0  334493.1989038612 5996935.948935225 0  395068.5043068817 6023875.372615605 0  348216.0324377587 6013504.844950221 0  379305.9090074943 6011603.390019651 0  372523.5158233726 6003480.000732267 0  395435.2039568929 5999384.346358113 0  395612.080798495 5954782.59950515 0  333763.6772813987 5954782.59950515 0  395612.080798495 6048753.88242996 0  374995.9462927963 6048753.88242996 0  374995.9462927963 5954782.59950515 0  354379.8117870975 6048753.88242996 0  354379.8117870975 5954782.59950515 0  335074.5981535012 6007206.680367459 0  391925.2695590468 5978591.908877409 0  371969.1707190623 6022560.499995181 0  383872.162544519 5969415.106147043 0  358038.7139835292 5984533.09712744 0  369699.869182786 5973102.2359358 0  369841.9126663716 6041099.453006387 0  343176.7440329155 5994428.220622956 0  362933.5332293962 6024385.235173292 0  330640.1760208776 5984148.625419154 0  348684.7494355051 5983110.856817525 0  399094.9690929834 6007537.420809742 0  345447.6324516311 5974162.84917082 0  332859.7749513451 6039150.972778062 0  344517.044630671 6024057.945416138 0  332973.1214415312 6025037.914505113 0  341428.0126373461 6040493.820728126 0  385874.264691618 5992757.40885039 0  350337.3662538711 6030387.535304286 0  359887.2373602368 6016186.250094838 0  377097.8989316926 6029115.217702097 0  338917.7109078235 5961484.016839475 0  329495.5261590715 5972402.215053552 0  336644.7280634616 5978216.610794215 0  330688.6715098422 5962480.256438018 0  359899.8039476132 6031963.415584587 0  399746.255941904 6030426.523907755 0  385511.6875144855 6030368.508996127 0  387377.735783329 6040763.821024337 0  398832.192399829 5974431.100387635 0  387992.9498994246 5962432.032572681 0  405920.1480513444 5984148.625419153 0  364925.7641745284 6005782.953640081 0  361769.877068089 6041226.651684469 0  398452.9199001931 6040850.732439541 0  398946.6205243983 5962252.502309519 0  362305.5577564609 5975984.89789681 0  356822.8065216601 5998470.186307689 0  386900.7115926162 5984820.732438302 0  329528.0119279922 6032067.230024892 0  331139.6939744562 6013813.572928222 0  398457.5876798834 5982541.698799337 0  405920.1480513444 6019387.856515957 0  398685.5166750694 6017257.578706384 0  348587.9424884976 6042755.309150081 0  369841.9126663716 5960143.732550304 0  380149.979919221 5960143.732550304 0  359533.8454135222 5960172.384722514 0  377147.8814772839 5972649.581024994 0  341756.3455763521 6010124.092444684 0  355615.8176864882 5966311.193813809 0  369144.4338274571 5989807.770003954 0  375185.9047422862 5983510.422041401 0  323455.6100285493 6007641.446150355 0  391856.7960121195 6005888.565703365 0  371978.0245217044 5996361.134308098 0  405920.1480513444 5995895.035784755 0  378877.1880032702 5998073.745937059 0  359056.6617417652 5991643.489540118 0  399278.8743430426 5993436.466134224 0  386116.8775939071 6009922.097099247 0  323455.6100285493 6019387.856515957 0  388994.7833819839 6019826.789191471 0  348897.6207366391 5998116.079250046 0  345456.3301153719 6035064.814295612 0  323455.6100285493 6042880.677247159 0  334124.3013408988 5990072.953472659 0  377097.8989316926 6018059.782440464 0  323455.6100285493 5995895.035784755 0  342871.8474798963 5980154.238874755 0  373596.9793292385 6035659.183886081 0  380149.979919221 6048753.88242996 0  376327.9292813152 6042294.581731233 0  329163.3548105369 6004704.843558955 0  350303.9432136903 6007093.032074522 0  383982.6552804571 6015912.664375832 0  345515.490569988 5988567.439252969 0  379019.812877927 6004678.052169549 0  365541.9137639466 6018750.691894444 0  349225.7781606728 5954782.59950515 0  352493.3399767278 5960815.406895458 0  363683.8130458911 5986976.225872464 0  386666.791301207 5975084.583584332 0  368937.6553346639 5966171.092344863 0  400003.9882214358 5968352.273777306 0  328776.0063842635 5992958.433193355 0  339958.4428758043 5999572.344589042 0  354577.7732363954 6012555.454074449 0  328609.6436549741 6048753.88242996 0  382053.0280278458 5988228.496807038 0  330708.6817934912 5978212.973348036 0  372084.7734679543 5978495.086505585 0  358568.2738174705 5971419.415228934 0  328931.2672829705 5998832.905089681 0  323455.6100285493 6031134.266881558 0  405920.1480513444 5972402.215053552 0  405920.1480513444 6031134.266881558 0  323455.6100285493 5972402.215053552 0  405920.1480513444 5960655.804687951 0  323455.6100285493 5960655.804687951 0  405920.1480513444 6007641.446150355 0  323455.6100285493 5984148.625419153 0  405920.1480513444 6042880.677247159 0  346648.7613474604 5960023.05127712 0  342415.3891593561 5966358.988213831 0  350507.6510228226 5971111.740321856 0  391773.9667214506 5994456.117700323 0  338875.8905424621 6026088.827345025 0  361429.1735454847 6010511.262533597 0  389395.7028803263 6025805.543023561 0  392895.6464692951 6043315.288173481 0  332846.8296575367 6019296.633131165 0  373337.4404588729 6009693.515402478 0  336544.3064612215 6043648.151399015 0  348610.2411382072 6019567.839754772 0  381943.4597763228 6042183.394750732 0  355630.0631288611 6028071.82801846 0  363941.5238882306 6035967.852698964 0  328179.67203552 6022271.326978176 0  401066.2857736665 5998807.415073814 0  344387.1099621175 6029612.545574771 0  393435.2235156003 5960233.556458537 0  400735.9970493424 6022675.638064924 0  393708.5772019727 6029179.837160029 0  400609.0696943338 5987857.851798974 0  361753.6614662939 6001152.171757337 0  400766.1144249197 6048753.88242996 0  353363.0524357285 6002630.165620538 0  343248.328463803 6018790.640008039 0  356419.8105951758 6043365.392189237 0  390234.385899412 6000759.497967276 0  368336.1168551637 6000220.532318851 0  328609.6436549741 5954782.59950515 0  387520.8298169724 6035372.992507171 0  400588.0280660195 6035823.299583429 0  329021.6598427091 6043194.252697862 0  393371.710206733 5983576.325812268 0  393638.9721728675 5973623.513063556 0  371727.9212466564 6017113.044457142 0  364687.2762977295 5959941.212693035 0  374995.9462927962 5960346.83186599 0  369841.9126663716 5954782.59950515 0  400766.1144249197 5954782.59950515 0  338917.7109078234 5954782.59950515 0  369841.9126663716 6048753.88242996 0  359533.8454135222 5954782.59950515 0  390458.0471720704 6048753.88242996 0  338917.7109078234 6048753.88242996 0  390458.0471720704 5954782.59950515 0  359533.8454135222 6048753.88242996 0  380149.979919221 5954782.59950515 0  349225.7781606728 6048753.88242996 0  339867.4956514095 6005339.817053361 0  333737.9460226952 6002130.523287664 0  336955.8140048417 6012008.440073739 0  377097.8989316926 6023232.32559834 0  371748.9790486701 6028016.629988787 0  338146.5171983215 5993298.164761053 0  355016.8390227688 6017610.913088997 0  393953.1528190996 6018968.416019509 0  335185.8133477239 5965142.63403323 0  328616.6041642396 5967263.80307608 0  380314.9487662361 5965460.362415641 0  354622.8993466098 6032976.142863722 0  328521.4725131759 6027215.026914048 0  334465.0783479523 6034070.534389696 0  328123.6212682287 6009699.206425843 0  381889.5169855529 5973936.741901617 0  359122.3484437474 6036790.002992895 0  386341.6533148278 5979963.279841923 0  400798.2159679119 6012477.871311778 0  388538.3765260249 5967461.292146791 0  340833.8784183678 5975728.708105717 0  355307.6239213505 5988552.151815021 0  362181.4274823388 5981261.937800813 0  353784.0322742948 5981044.538811012 0  358045.1698423899 5978741.391518688 0  328423.7350325213 6036912.015930048 0  366897.6876966125 6027277.723668203 0  347355.1745641421 5978532.307510624 0  376820.5060332146 5979033.270735624 0  349378.1778589479 6024378.632814493 0  327189.2282939323 6016451.253924556 0  338433.8773236172 6036753.902881841 0  350141.9760340559 5987605.90026687 0  363794.7083927878 5991713.491814731 0  350325.1285660182 6035273.515460094 0  382355.9358007369 5983507.499638396 0  327107.0747437811 59811
[...]
<PointData  Scalars="f_10742-0"> 
<DataArray  type="Float64"  Name="f_10742-0"  format="ascii">2.0721114788638495e+07  2.3878328211278662e+07  1.9572377121936329e+07  1.7192983393641505e+07  1.8544836485453367e+07  2.2265486913300484e+07  2.1925346051541768e+07  1.8859817683464184e+07  2.0984285436343834e+07  2.1701369337228402e+07  1.9043330759433646e+07  1.9081687145815216e+07  2.3018074573406179e+07  2.0376254421795286e+07  2.2817847438713387e+07  2.1195400790012635e+07  1.8103814556214117e+07  2.1665460955693264e+07  2.0652925316705815e+07  1.9523515633516312e+07  2.1462884367752790e+07  1.9744155831605863e+07  1.8040026641720556e+07  2.1945397640833642e+07  2.2638005147399284e+07  1.9981720081576414e+07  1.9288349551908925e+07  1.9431415330050942e+07  1.8370617216561187e+07  1.8238959911361177e+07  2.0125377468711730e+07  2.0839318122418243e+07  2.1999975702975690e+07  2.1364534501856033e+07  1.9661639341999635e+07  2.1375482941090200e+07  2.1215483735098179e+07  2.1418048598968010e+07  2.0498399357938591e+07  1.8896234957207941e+07  2.0917907357903801e+07  1.8664096199786834e+07  2.3474372212083030e+07  1.7639522584899582e+07  1.9303521136573918e+07  2.1248215524712209e+07  2.0242594987828262e+07  1.8793987146084096e+07  2.2591036315809853e+07  2.1649805396805305e+07  2.2244324518855542e+07  2.1939683078855816e+07  1.8524946790266167e+07  2.1076322184190270e+07  1.9468806827261742e+07  2.0192620578069068e+07  1.9036293268765721e+07  2.0386854584107794e+07  2.3353949649731647e+07  1.7636368480198544e+07  1.8429009558032814e+07  2.1617018166410048e+07  1.9284696976140786e+07  2.2309042900338221e+07  2.1695696674880467e+07  1.9887820531070244e+07  1.9432365036341365e+07  2.0847417907938920e+07  2.1387788701917835e+07  2.1336217712309331e+07  1.8918759647806250e+07  2.1660715244323842e+07  1.9772385959368173e+07  2.2442268604166318e+07  2.1655285879687317e+07  1.8723659103035931e+07  2.2069437104210310e+07  2.0756132079773705e+07  2.0866800853691816e+07  2.1363634190394774e+07  2.0260864737836156e+07  1.9804840218980685e+07  2.0235824633711711e+07  2.0325915500382170e+07  1.9032838540391847e+07  2.2870488984753594e+07  2.2949920296920940e+07  2.2355194891272463e+07  2.3259767594636165e+07  1.9627467004652608e+07  1.8139313964939129e+07  1.8677423874620251e+07  1.8256096455183212e+07  1.9552248208780713e+07  2.0829160956769552e+07  1.8944968322782926e+07  2.0559085923410356e+07  1.9244900418429259e+07  1.7785700083180021e+07  1.9870901721861947e+07  2.1455015258495506e+07  2.1159732869520545e+07  2.0040210922323130e+07  2.1234309935724776e+07  2.1701493256321900e+07  1.9369008455314528e+07  1.8259658634548202e+07  1.8571581877742648e+07  1.9764801257836655e+07  2.1636985894077294e+07  2.1312105292355798e+07  2.1954113867482193e+07  2.1103108853474978e+07  2.1412798455822852e+07  2.1909109202002071e+07  2.0996032217491884e+07  2.0876620842801679e+07  2.2128701605342511e+07  1.9068746230857156e+07  2.0632839288419556e+07  1.8654431289327733e+07  2.0040720758774433e+07  2.1244244153094020e+07  1.9009664521597095e+07  1.9229252844403375e+07  2.1863444210420642e+07  1.8866678154223047e+07  2.1420731019785471e+07  2.0321033301570993e+07  2.0980126877740551e+07  2.2107121966664389e+07  1.9364992807418715e+07  2.2418256373530187e+07  2.1977078962179549e+07  1.8960249883236025e+07  1.8226894005630054e+07  1.8608094673227765e+07  2.1961616858016782e+07  2.1201397888685610e+07  1.9159613252067011e+07  2.1655986569044132e+07  1.9726327557331096e+07  1.9868944355167061e+07  2.2551455758673504e+07  2.2214019910670284e+07  2.1223179983736657e+07  2.0420932470987689e+07  2.1510807902337514e+07  1.9623535233095463e+07  2.2262957177141089e+07  2.1687001349948511e+07  2.0830477633589860e+07  2.0483021810605906e+07  2.0256391709557623e+07  2.2660209796298333e+07  2.1144547321140170e+07  2.1654583039109349e+07  2.2107556755224664e+07  2.1497661445049580e+07  1.9193224288484450e+07  1.7887249279479995e+07  2.3248818629982654e+07  1.9430795653063677e+07  2.3684262265346620e+07  1.8458180517444808e+07  2.2793142141020857e+07  1.7406979013016786e+07  2.2518699149986148e+07  2.2516231991872642e+07  2.1948756139189214e+07  1.9372406732356757e+07  2.1102810657386869e+07  2.0516899265548732e+07  1.8676490588542972e+07  1.7950969777372461e+07  2.1520609396455418e+07  1.9831430752495278e+07  2.0350252986161184e+07  2.0806685278429139e+07  1.8394994853545755e+07  2.0011983635260507e+07  1.9326615230904978e+07  2.1616213051592093e+07  1.8796991697742511e+07  2.0671123452477995e+07  2.0432573342484541e+07  1.8375866843706310e+07  1.8396050125507593e+07  1.9106688990843575e+07  2.0917954135412298e+07  1.7411650394614846e+07  2.1189537259507708e+07  2.1100344695435070e+07  1.9392615552778114e+07  1.9272025656827603e+07  2.0685070147806838e+07  2.3621038139917228e+07  1.8433185156173252e+07  1.7888303251916688e+07  2.0719142682566434e+07  1.9633653520754978e+07  1.9925328048599549e+07  1.9626887609796960e+07  2.1785861587092996e+07  2.1488922928061020e+07  2.1768908068306439e+07  1.9938909713745005e+07  2.3087807169562995e+07  1.8642607250664402e+07  2.2102611415211797e+07  1.7851195885570988e+07  1.9995691408909079e+07  2.0855529761263840e+07  1.9074122382105578e+07  2.1435756283399306e+07  1.9504373696200792e+07  2.1578284466900446e+07  2.1850616489681490e+07  2.1534285942476012e+07  1.9211939939188559e+07  1.9270043112834558e+07  2.1871135569586687e+07  2.0555423678779926e+07  1.8699928670889702e+07  2.2933196796001278e+07  2.3193120177478403e+07  2.1163877275236480e+07  1.9851119730276551e+07  2.1456372205238998e+07  2.0949496476390626e+07  2.1896875707739424e+07  2.0807012811433140e+07  1.9495032196390025e+07  2.0262543325537432e+07  1.8584883502722997e+07  2.0593759263420612e+07  2.2236159766785160e+07  2.1381377629643902e+07  2.1357440104843665e+07  2.1547435840291839e+07  2.1495950380642470e+07  2.1053457121733267e+07  1.9486286996720050e+07  2.1833023970049512e+07  2.0930417472708467e+07  2.0565291270942654e+07  2.1792132448897552e+07  2.0626709338458057e+07  2.1524229918478169e+07  2.1127741261530831e+07  1.9998326774077129e+07  2.0424433325618062e+07  2.2727930165306371e+07  2.2181879210197818e+07  2.2435951570394244e+07  2.0200283555520035e+07  2.1351228514003459e+07  2.1484671343744833e+07  2.1306267274158236e+07  1.8670099142230719e+07  1.8982586920305699e+07  1.9125410993130591e+07  2.2899968492993381e+07  2.2633279549757473e+07  2.0135684984704487e+07  1.9575455930235937e+07  2.1189241254348114e+07  1.9566966361304089e+07  2.1305854335678179e+07  2.1332567844976045e+07  1.9722748792307235e+07  2.0090647641975705e+07  2.1548971152514394e+07  2.2203323485753171e+07  2.1519055081567388e+07  1.8692197534317970e+07  1.8863103148134042e+07  1.8907078195422787e+07  1.9455047810289141e+07  2.1785909016777635e+07  2.1225876321339428e+07  2.1790948788218357e+07  2.1344477143795878e+07  2.0181365151835192e+07  2.1033182671831902e+07  1.8030109817935370e+07  1.9002209601057462e+07  2.0033584005211171e+07  2.2357089688238434e+07  1.9631569978149734e+07  1.9188867389683150e+07  1.8720269709534369e+07  1.8062617906400934e+07  1.8917906762407854e+07  1.8787096186539453e+07  2.0788537132754967e+07  1.8473341862944514e+07  2.3113784452582441e+07  2.2775560403686866e+07  1.9288343167707585e+07  2.2396021170482472e+07  2.2148726281276159e+07  2.2984746203093152e+07  1.9499876706864826e+07  1.7648197039716870e+07  1.7645366186841205e+07  2.3431429281434644e+07  2.0241270533632163e+07  1.9508924077894922e+07  2.0588271507963832e+07  2.0071573163214266e+07  2.3377541307489824e+07  1.8469515262988392e+07  2.1078653062432010e+07  1.8875440663834747e+07  1.9133118896658685e+07  1.9945208606274329e+07  2.0133202770993199e+07  1.9575511223037556e+07  2.0055427837025654e+07  1.8451100423110843e+07  2.1324871451764669e+07  2.1123090528366700e+07  2.1027990236608110e+07  1.9717893811423868e+07  1.9418982723598249e+07  2.0966267515932467e+07  2.3529314959964111e+07  1.7527162423955720e+07  2.1816105300723046e+07  1.9307869111848060e+07  1.9778994391207289e+07  2.1820783824755821e+07  1.8207724726464897e+07  1.8339421566306680e+07  1.8106941003758054e+07  1.9772527589940611e+07  2.0322920292669091e+07  2.1180628957043067e+07  2.0847429494150035e+07  2.0300484284645643e+07  2.0788497441588242e+07  2.0969452847052861e+07  2.0745257499767002e+07  1.9096976545715116e+07  1.9932120811085224e+07  1.8847129544473141e+07  2.1117157764078584e+07  1.9082477321964741e+07  2.1190700105226226e+07  2.0848628226493705e+07  2.1114433095513482e+07  2.1115894125087898e+07  2.1543643522200655e+07  2.1685853753746554e+07  2.1299830628805388e+07  1.9803560146985456e+07  2.1464618728657123e+07  1.8231267642980322e+07  1.9607913429603409e+07  1.9380602575586513e+07  2.2586648990381822e+07  2.1377440620182391e+07  1.9865017556942191e+07  1.9130699989368156e+07  1.9451811673509274e+07  1.8532239901323050e+07  2.1653348752986070e+07  2.0472220301162362e+07  1.9828224518130001e+07  1.8396210704618830e+07  1.9771332293254968e+07  1.8927929756724432e+07  2.2138801449306980e+07  2.2007481469342761e+07  2.1824213606888011e+07  2.1504828581762776e+07  2.1625103423037816e+07  2.1473298204816315e+07  1.9027795907696292e+07  1.9651410561347187e+07  2.1732877647193007e+07  1.8217688815946430e+07  2.1338484257087287e+07  2.1578992031363383e+07  2.2710007643576726e+07  2.0485078880370330e+07  2.1130753190566815e+07  1.9019330950812194e+07  1.8694754874895629e+07  2.1777340763740856e+07  2.1939588394947652e+07  2.3363199480607625e+07  2.2021572587997388e+07  1.9764878938029766e+07  2.1556890435307909e+07  2.1815621736931298e+07  2.0291907485011693e+07  2.1955006232772760e+07  2.0627331451718185e+07  2.1024894293989364e+07  1.9710830697322480e+07  2.0420682312694877e+07  1.8611326987911366e+07  1.9322946547407027e+07  1.9175776452596191e+07  2.0123066294379234e+07  2.0898339343441028e+07  2.1311945809153493e+07  1.9205269070092522e+07  1.8855461383337587e+07  1.8752936028136209e+07  1.8807153600134876e+07  2.0749725346700158e+07  2.0547052900442649e+07  1.9999403935355764e+07  2.0413745244329181e+07  2.3106782117998928e+07  1.9584605126585849e+07  2.0050201992010754e+07  2.1378026395757183e+07  2.0707722599250715e+07  1.9465265437594309e+07  1.8131829819619976e+07  1.7763843561615687e+07  1.7948989962186590e+07  2.2598502151242249e+07  1.8819682785111368e+07  1.9194600689014383e+07  1.8416054648774218e+07  1.8572927616720073e+07  1.7961179298999574e+07  1.9389906490792058e+07  1.9672059127454132e+07  2.1063527724348947e+07  2.1430378884020377e+07  2.2099112090669882e+07  1.9166346245548598e+07  2.1010197250078078e+07  2.1046211918518815e+07  1.9625772036832564e+07  1.9440653818224479e+07  2.1709286612069894e+07  2.0429461822833735e+07  2.3085994953545574e+07  2.1686741190448590e+07  1.9732503100645468e+07  2.1249345326304857e+07  2.2289731270906825e+07  2.2007874781730328e+07  2.2410788851842798e+07  2.0817853595975719e+07  1.9299008735570639e+07  1.9245382405034322e+07  1.9377188913769484e+07  2.0886314786103118e+07  2.1876810267054591e+07  2.1007919237165079e+07  1.8435386530786034e+07  1.9816109527254090e+07  2.2444161459819201e+07  2.0613921251708452e+07  2.0275923952153809e+07  2.1804247852511134e+07  2.3169811248520471e+07  2.1956084240798764e+07  1.8797792595032070e+07  2.0626628226228200e+07  2.1596661186383594e+07  1.9082110171289179e+07  1.8573859522684887e+07  2.1248388359481100e+07  1.8870147630201723e+07  2.0968587241610959e+07  2.0863294055445313e+07  2.2158836675104447e+07  2.1530688309215106e+07  1.9124321347263701e+07  2.1519737897745177e+07  2.1319579635390993e+07  1.8512620981214590e+07  1.8849754796656933e+07  1.9982330749818470e+07  2.0904643467712495e+07  2.1813244071082812e+07  2.2009163964638226e+07  2.2153250278228432e+07  2.1066425777461261e+07  1.9875330771227673e+07  1.9370228450928338e+07  2.0496170591061108e+07  1.8869911200601500e+07  2.1803475945983678e+07  2.0950363955588467e+07  1.8711511987323970e+07  2.1459667548225947e+07  2.0583167823335975e+07  2.2016836291589137e+07  2.2111744262974106e+07  2.2339606879744802e+07  1.9241031349883616e+07  2.1605582474964917e+07  2.1418424298400681e+07  2.1291728494333830e+07  2.2687963865781840e+07  1.8956271243833613e+07  2.1312005473120391e+07  1.9071100690363850e+07  2.2064213813773178e+07  2.1198883981840968e+07  2.1812428456466369e+07  2.1387929373066306e+07  2.1659423477086898e+07  2.0522280545192540e+07  2.0502947160338871e+07  2.0587449205140449e+07  2.1790777378341369e+07  2.1646107703655258e+07  2.1661294026199311e+07  1.9834782859687723e+07  1.9975785979255535e+07  1.9634427887405995e+07  2.1346545970844682e+07  2.0031244014682837e+07  2.1113213349653155e+07  1.9221098540268224e+07  2.2339076368170127e+07  2.2261843418130636e+07  2.2501667383166928e+07  2.0628355392888829e+07  2.0721614185140405e+07  1.7298641867731899e+07  1.9832615520922150e+07  1.9665810966586329e+07  2.0761570543948635e+07  1.8256835731703334e+07  1.9444687089531854e+07  1.9769222547518924e+07  1.9063736644756328e+07  2.3782996796071582e+07  2.3751281102352608e+07  1.8240472668241449e+07  2.0693190416129641e+07  2.1317887588621944e+07  2.1264154269648250e+07  2.1127862331687454e+07  1.9600014548592750e+07  1.8189048429397181e+07  2.1225509545149747e+07  2.2962066729726762e+07  2.1549182087604493e+07  2.1596048893777799e+07  2.1440333669794135e+07  1.8693680364812061e+07  2.0401297264713455e+07  2.0136082940827657e+07  1.7746625975448873e+07  1.7773771349605922e+07  1.8111449956042744e+07  1.7884476074218892e+07  2.2423473543333177e+07  2.2223983584035136e+07  1.9223617073692333e+07  2.0781714327985253e+07  2.0027268740748469e+07  2.1571424661524974e+07  2.1701594230165735e+07  1.9618225834308963e+07  1.9501149463202227e+07  1.8500113446254812e+07  1.9653621932927940e+07  2.0850419482767612e+07  1.8055460132745560e+07  1.8973450358752239e+07  2.0462657498087715e+07  2.2349195944465522e+07  2.2689885389906257e+07  2.1259864517408032e+07  1.8624731473654710e+07  1.8542567944482595e+07  2.2292884025996551e+07  2.0668650875065036e+07  2.0038114747528400e+07  2.1518685459450882e+07  1.7910939349945087e+07  2.2742955812875949e+07  2.2548468323990691e+07  2.2546891518723067e+07  1.7301338084728416e+07  2.2195403668923672e+07  2.0815175047950845e+07  2.0030840025170974e+07  2.0453336911220256e+07  2.2109911017391250e+07  2.1980979749643762e+07  2.1796566332302213e+07  2.1742803845944583e+07  2.1786659571817905e+07  1.9658609110678039e+07  2.1206498797952253e+07  2.1228611897175599e+07  2.1243263048709206e+07  1.8720972295900118e+07  1.9209661018798169e+07  2.0726845783694077e+07  2.0535431911542334e+07  1.9240842600181893e+07  2.1851276622171301e+07  2.1991509751100209e+07  2.1990889658664595e+07  2.2535823114408705e+07  1.9496055097726375e+07  1.8319197913007863e+07  2.1933790599095330e+07  2.3133249159262486e+07  1.9140599238722280e+07  1.8001991234247092e+07  1.9367093118998673e+07  2.3581475280106571e+07  1.7520282990946766e+07  1.9016408334811397e+07  2.2904241760436423e+07  1.8595770969953150e+07  2.0132790262709931e+07  2.0629204053996328e+07  2.0340361094319358e+07  2.1422191187091112e+07  2.1692170391090028e+07  2.1238920899280943e+07  2.1231348828543119e+07  2.2683259762081716e+07  2.2679018991732135e+07  2.2873201531461909e+07  2.0120139854725346e+07  2.0248015728585716e+07  2.0555662174614627e+07  2.1246250173073851e+07  2.1559034848221563e+07  1.8251049314554144e+07  1.8433028903536078e+07  2.1464193137799077e+07  2.1444279058519479e+07  1.9813220398776878e+07  2.0048368638931394e+07  2.0143888467854749e+07  2.1660042556139641e+07  1.9216073706561454e+07  1.9322046717944428e+07  1.9358038333644543e+07  2.2441290733347829e+07  2.1457184294985276e+07  2.1408946223926768e+07  2.1497374819749665e+07  2.0219027118675515e+07  1.8641816717520721e+07  2.1609753864973031e+07  2.1012112183344211e+07  1.9477153470010869e+07  1.9358986590525791e+07  1.9274353866781026e+07  1.8672970604472134e+07  2.0874992996884990e+07  2.0363363090692613e+07  2.0544712883292895e+07  1.9176346195662677e+07  2.0171487595433589e+07  1.8342673855559763e+07  2.1038559359491520e+07  2.0758196676541153e+07  2.0999698292456359e+07  1.7798937362112314e+07  2.1216206535886448e+07  2.0226297020043395e+07  1.8922497210092369e+07  2.1602989368603300e+07  2.0009297580143403e+07  2.2414790176250570e+07  2.0856077916750703e+07  2.1024135943524927e+07  2.2953317562574759e+07  1.8250419230482262e+07  2.0620556495192189e+07  1.8751240126142528e+07  2.1079004949272644e+07  2.0638061676037673e+07  1.9585001933303032e+07  2.1616183533389870e+07  2.0887676556730118e+07  2.0932913025246553e+07  2.2226057408826414e+07  1.9542942357980549e+07  1.8529288746050250e+07  1.8951802335597873e+07  1.8326038306596600e+07  1.8499198541977808e+07  1.8027533048545416e+07  1.7819344366774220e+07  1.8992717569197372e+07  1.9144075570182551e+07  2.1034091985026177e+07  1.8790397470802777e+07  1.9514356652758323e+07  1.9527203792915404e+07  1.9558172865203403e+07  2.1341241403266028e+07  1.8318860903099038e+07  2.0948710842787750e+07  2.0997728805916779e+07  2.1060201642385583e+07  2.1324457060143646e+07  2.1331669148811653e+07  1.8328506158873815e+07  1.8335270893738389e+07  1.8548493027244046e+07  2.2035277411290620e+07  2.2202021933077060e+07  2.0195791662056990e+07  2.1096688961661287e+07  1.9310812757325124e+07  2.1206650274524372e+07  1.9207651599828865e+07  1.9363998238494284e+07  1.9153756097789589e+07  1.9349706754951924e+07  2.1765152217793014e+07  2.0068419910113800e+07  1.8086622475760128e+07  1.9862644118284542e+07  1.8498486701286431e+07  2.1419820098441992e+07  2.1436201399563789e+07  2.1377556450306613e+07  2.0260542275076855e+07  2.0826419957420617e+07  2.1119426205875900e+07  1.9331534355196375e+07  2.1262428675402168e+07  2.1234988827873528e+07  2.2819331469535269e+07  2.1777256750357743e+07  2.0351724271125510e+07  2.0347629513299797e+07  1.9744413156912692e+07  1.9179329665885177e+07  2.1701585448079515e+07  2.0120934051109582e+07  1.9715936525483955e+07  1.9017204878420975e+07  2.1010948898842111e+07  2.1457571780163348e+07  2.0361098925551876e+07  2.1242979146163445e+07  2.0639450859257609e+07  2.2940805863957040e+07  2.2786552102825291e+07  1.8558896618757162e+07  1.8672743052422903e+07  1.9621660488881025e+07  2.3247971580466002e+07  2.3356488348314289e+07  2.3056691152699742e+07  1.9020582383404277e+07  1.8901077329361595e+07  1.8795534943694189e+07  1.9946667613071453e+07  1.9746383863244947e+07  1.9486420277462587e+07  2.2088206622035872e+07  1.9311162839281611e+07  1.9379921792383939e+07  1.9520729492101058e+07  2.1533862512189373e+07  2.0487386360582728e+07  2.1854633225775812e+07  2.1690790106021781e+07  2.1412306686832368e+07  2.1563316761508238e+07  2.1424184752928980e+07  2.1456927239310794e+07  2.1461287975651551e+07  2.1616375014144879e+07  2.1769565606766194e+07  2.3223687711362518e+07  2.0602185575679030e+07  2.1693879068966538e+07  2.1042695479757391e+07  1.9869755784596052e+07  1.8534876035289478e+07  1.7948152707881417e+07  2.2425197528725520e+07  2.2011074062914725e+07  2.1845423165884405e+07  2.1532552781777579e+07  1.8967621852835238e+07  2.0154413512981366e+07  2.3487908201542810e+07  1.9392448917836394e+07  1.7523824161039654e+07  2.3220928262117274e+07  1.8055561015932865e+07  1.9971574582049500e+07  2.0723097491987504e+07  1.9120186138064802e+07  2.1498558491366398e+07  2.3062244869031556e+07  2.1509371806619149e+07  1.8102549554901205e+07  2.0296765761676006e+07  2.0446117886664730e+07  1.8899905108511720e+07  2.2826600877823435e+07  1.9997057632211458e+07  2.3092812720674708e+07  1.9244761953764465e+07  2.2121761075835332e+07  1.9145233437878743e+07  2.2358717098608330e+07  1.9482894073567621e+07  2.0734392682749555e+07  2.0760826342620220e+07  2.1558053996566940e+07  1.9618767761002280e+07  1.9457207173855551e+07  1.8778800956916004e+07  1.8619675968804564e+07  1.9688028004846573e+07  1.8817611349018887e+07  1.7434903366392728e+07  2.0024013312157895e+07  1.9825491