<?xml version="1.0"?>
<VTKFile type="UnstructuredGrid"  version="0.1"  >
<UnstructuredGrid>
<Piece  NumberOfPoints="3002" NumberOfCells="5870">
<Points>
<DataArray  type="Float64"  NumberOfComponents="3"  format="ascii">323455.6100285493 6048753.88242996 0  323455.6100285493 5954782.59950515 0  405920.1480513444 5954782.59950515 0  405920.1480513444 6048753.88242996 0  405920.1480513444 6001768.240967555 0  323455.6100285493 6001768.240967555 0  364687.8790399469 5954782.59950515 0  364687.8790399469 6048753.88242996 0  364687.8790399469 5996367.117560402 0  323455.6100285493 6025261.061698757 0  382226.6271443229 6022560.499995181 0  405920.1480513444 5978275.420236353 0  323455.6100285493 5978275.420236353 0  353897.8957397301 6022560.499995181 0  344071.7445342481 5954782.59950515 0  385304.0135456456 5954782.59950515 0  405920.1480513444 6025261.061698757 0  354379.8117870975 5975574.858532775 0  381582.8168806895 5978840.396198289 0  384950.2598624413 6001768.240967555 0  344643.0480768835 6003429.02033719 0  344071.7445342481 6048753.88242996 0  385304.0135456456 6048753.88242996 0  339717.0321562298 5986078.187627405 0  337515.036058786 5969821.016310448 0  368062.2614420265 6013076.224998265 0  368062.2614420265 6032044.774992097 0  393987.6142659165 5988729.699941677 0  405920.1480513444 6013514.651333156 0  392856.2821527076 6034589.119828064 0  393514.9611654527 5968369.338068204 0  339399.8087404341 6032061.482581838 0  323455.6100285493 6013514.651333156 0  374995.9462927963 5965504.865595459 0  354379.8117870975 6037976.901948514 0  338123.9088969378 6017031.529131207 0  367397.3120126425 5982072.559192053 0  351882.5752379905 5991998.990225234 0  376945.425450199 5991232.708824487 0  392265.0061656896 6013300.936254065 0  357029.7426706699 6006608.947964352 0  380093.6207558212 6036880.127749795 0  323455.6100285493 5966529.009870751 0  405920.1480513444 6037007.472064359 0  405920.1480513444 5966529.009870751 0  323455.6100285493 6037007.472064359 0  333763.6772813987 6048753.88242996 0  405920.1480513444 5990021.830601954 0  323455.6100285493 5990021.830601954 0  362879.3643765316 5966837.319094267 0  348367.6438548031 5965604.161682394 0  334493.1989038612 5996935.948935225 0  395068.5043068817 6023875.372615605 0  348216.0324377587 6013504.844950221 0  379305.9090074943 6011603.390019651 0  372523.5158233726 6003480.000732267 0  395435.2039568929 5999384.346358113 0  395612.080798495 5954782.59950515 0  333763.6772813987 5954782.59950515 0  395612.080798495 6048753.88242996 0  374995.9462927963 6048753.88242996 0  374995.9462927963 5954782.59950515 0  354379.8117870975 6048753.88242996 0  354379.8117870975 5954782.59950515 0  335074.5981535012 6007206.680367459 0  391925.2695590468 5978591.908877409 0  371969.1707190623 6022560.499995181 0  383872.162544519 5969415.106147043 0  358038.7139835292 5984533.09712744 0  369699.869182786 5973102.2359358 0  369841.9126663716 6041099.453006387 0  343176.7440329155 5994428.220622956 0  362933.5332293962 6024385.235173292 0  330640.1760208776 5984148.625419154 0  348684.7494355051 5983110.856817525 0  399094.9690929834 6007537.420809742 0  345447.6324516311 5974162.84917082 0  332859.7749513451 6039150.972778062 0  344517.044630671 6024057.945416138 0  332973.1214415312 6025037.914505113 0  341428.0126373461 6040493.820728126 0  385874.264691618 5992757.40885039 0  350337.3662538711 6030387.535304286 0  359887.2373602368 6016186.250094838 0  377097.8989316926 6029115.217702097 0  338917.7109078235 5961484.016839475 0  329495.5261590715 5972402.215053552 0  336644.7280634616 5978216.610794215 0  330688.6715098422 5962480.256438018 0  359899.8039476132 6031963.415584587 0  399746.255941904 6030426.523907755 0  385511.6875144855 6030368.508996127 0  387377.735783329 6040763.821024337 0  398832.192399829 5974431.100387635 0  387992.9498994246 5962432.032572681 0  405920.1480513444 5984148.625419153 0  364925.7641745284 6005782.953640081 0  361769.877068089 6041226.651684469 0  398452.9199001931 6040850.732439541 0  398946.6205243983 5962252.502309519 0  362305.5577564609 5975984.89789681 0  356822.8065216601 5998470.186307689 0  386900.7115926162 5984820.732438302 0  329528.0119279922 6032067.230024892 0  331139.6939744562 6013813.572928222 0  398457.5876798834 5982541.698799337 0  405920.1480513444 6019387.856515957 0  398685.5166750694 6017257.578706384 0  348587.9424884976 6042755.309150081 0  369841.9126663716 5960143.732550304 0  380149.979919221 5960143.732550304 0  359533.8454135222 5960172.384722514 0  377147.8814772839 5972649.581024994 0  341756.3455763521 6010124.092444684 0  355615.8176864882 5966311.193813809 0  369144.4338274571 5989807.770003954 0  375185.9047422862 5983510.422041401 0  323455.6100285493 6007641.446150355 0  391856.7960121195 6005888.565703365 0  371978.0245217044 5996361.134308098 0  405920.1480513444 5995895.035784755 0  378877.1880032702 5998073.745937059 0  359056.6617417652 5991643.489540118 0  399278.8743430426 5993436.466134224 0  386116.8775939071 6009922.097099247 0  323455.6100285493 6019387.856515957 0  388994.7833819839 6019826.789191471 0  348897.6207366391 5998116.079250046 0  345456.3301153719 6035064.814295612 0  323455.6100285493 6042880.677247159 0  334124.3013408988 5990072.953472659 0  377097.8989316926 6018059.782440464 0  323455.6100285493 5995895.035784755 0  342871.8474798963 5980154.238874755 0  373596.9793292385 6035659.183886081 0  380149.979919221 6048753.88242996 0  376327.9292813152 6042294.581731233 0  329163.3548105369 6004704.843558955 0  350303.9432136903 6007093.032074522 0  383982.6552804571 6015912.664375832 0  345515.490569988 5988567.439252969 0  379019.812877927 6004678.052169549 0  365541.9137639466 6018750.691894444 0  349225.7781606728 5954782.59950515 0  352493.3399767278 5960815.406895458 0  363683.8130458911 5986976.225872464 0  386666.791301207 5975084.583584332 0  368937.6553346639 5966171.092344863 0  400003.9882214358 5968352.273777306 0  328776.0063842635 5992958.433193355 0  339958.4428758043 5999572.344589042 0  354577.7732363954 6012555.454074449 0  328609.6436549741 6048753.88242996 0  382053.0280278458 5988228.496807038 0  330708.6817934912 5978212.973348036 0  372084.7734679543 5978495.086505585 0  358568.2738174705 5971419.415228934 0  328931.2672829705 5998832.905089681 0  323455.6100285493 6031134.266881558 0  405920.1480513444 5972402.215053552 0  405920.1480513444 6031134.266881558 0  323455.6100285493 5972402.215053552 0  405920.1480513444 5960655.804687951 0  323455.6100285493 5960655.804687951 0  405920.1480513444 6007641.446150355 0  323455.6100285493 5984148.625419153 0  405920.1480513444 6042880.677247159 0  346648.7613474604 5960023.05127712 0  342415.3891593561 5966358.988213831 0  350507.6510228226 5971111.740321856 0  391773.9667214506 5994456.117700323 0  338875.8905424621 6026088.827345025 0  361429.1735454847 6010511.262533597 0  389395.7028803263 6025805.543023561 0  392895.6464692951 6043315.288173481 0  332846.8296575367 6019296.633131165 0  373337.4404588729 6009693.515402478 0  336544.3064612215 6043648.151399015 0  348610.2411382072 6019567.839754772 0  381943.4597763228 6042183.394750732 0  355630.0631288611 6028071.82801846 0  363941.5238882306 6035967.852698964 0  328179.67203552 6022271.326978176 0  401066.2857736665 5998807.415073814 0  344387.1099621175 6029612.545574771 0  393435.2235156003 5960233.556458537 0  400735.9970493424 6022675.638064924 0  393708.5772019727 6029179.837160029 0  400609.0696943338 5987857.851798974 0  361753.6614662939 6001152.171757337 0  400766.1144249197 6048753.88242996 0  353363.0524357285 6002630.165620538 0  343248.328463803 6018790.640008039 0  356419.8105951758 6043365.392189237 0  390234.385899412 6000759.497967276 0  368336.1168551637 6000220.532318851 0  328609.6436549741 5954782.59950515 0  387520.8298169724 6035372.992507171 0  400588.0280660195 6035823.299583429 0  329021.6598427091 6043194.252697862 0  393371.710206733 5983576.325812268 0  393638.9721728675 5973623.513063556 0  371727.9212466564 6017113.044457142 0  364687.2762977295 5959941.212693035 0  374995.9462927962 5960346.83186599 0  369841.9126663716 5954782.59950515 0  400766.1144249197 5954782.59950515 0  338917.7109078234 5954782.59950515 0  369841.9126663716 6048753.88242996 0  359533.8454135222 5954782.59950515 0  390458.0471720704 6048753.88242996 0  338917.7109078234 6048753.88242996 0  390458.0471720704 5954782.59950515 0  359533.8454135222 6048753.88242996 0  380149.979919221 5954782.59950515 0  349225.7781606728 6048753.88242996 0  339867.4956514095 6005339.817053361 0  333737.9460226952 6002130.523287664 0  336955.8140048417 6012008.440073739 0  377097.8989316926 6023232.32559834 0  371748.9790486701 6028016.629988787 0  338146.5171983215 5993298.164761053 0  355016.8390227688 6017610.913088997 0  393953.1528190996 6018968.416019509 0  335185.8133477239 5965142.63403323 0  328616.6041642396 5967263.80307608 0  380314.9487662361 5965460.362415641 0  354622.8993466098 6032976.142863722 0  328521.4725131759 6027215.026914048 0  334465.0783479523 6034070.534389696 0  328123.6212682287 6009699.206425843 0  381889.5169855529 5973936.741901617 0  359122.3484437474 6036790.002992895 0  386341.6533148278 5979963.279841923 0  400798.2159679119 6012477.871311778 0  388538.3765260249 5967461.292146791 0  340833.8784183678 5975728.708105717 0  355307.6239213505 5988552.151815021 0  362181.4274823388 5981261.937800813 0  353784.0322742948 5981044.538811012 0  358045.1698423899 5978741.391518688 0  328423.7350325213 6036912.015930048 0  366897.6876966125 6027277.723668203 0  347355.1745641421 5978532.307510624 0  376820.5060332146 5979033.270735624 0  349378.1778589479 6024378.632814493 0  327189.2282939323 6016451.253924556 0  338433.8773236172 6036753.902881841 0  350141.9760340559 5987605.90026687 0  363794.7083927878 5991713.491814731 0  350325.1285660182 6035273.515460094 0  382355.9358007369 5983507.499638396 0  327107.0747437811 59811
[...]
<PointData  Scalars="f_24869-0"> 
<DataArray  type="Float64"  Name="f_24869-0"  format="ascii">2.1338132054004904e+07  2.4565922819994591e+07  2.0255379739509590e+07  1.7801298841066495e+07  1.9198861203198340e+07  2.2921072007960655e+07  2.2611438747882646e+07  1.9473983775710318e+07  2.1633699099435348e+07  2.2330465439320263e+07  1.9672558024045371e+07  1.9757606662509553e+07  2.3696917115902200e+07  2.1007553192381926e+07  2.3505188403430585e+07  2.1879505190764535e+07  1.8727042920606662e+07  2.2344807319749396e+07  2.1328506208306484e+07  2.0181912108803090e+07  2.2115808901496254e+07  2.0360588062902514e+07  1.8650451691496495e+07  2.2617352154971413e+07  2.3321819785482902e+07  2.0624707702542070e+07  1.9909424238383099e+07  2.0100161864623576e+07  1.9008994777005006e+07  1.8853941285695933e+07  2.0806372014459681e+07  2.1462470055011854e+07  2.2641666271627754e+07  2.2047746942215424e+07  2.0280126969895229e+07  2.2013078428597476e+07  2.1887063709182639e+07  2.2082094572708957e+07  2.1157337992666226e+07  1.9536254117261641e+07  2.1565741588316333e+07  1.9279503685546651e+07  2.4159745517665364e+07  1.8251832348915081e+07  1.9984755929482527e+07  2.1868433824362665e+07  2.0859478090850439e+07  1.9460893596327536e+07  2.3259579335766982e+07  2.2333487299833264e+07  2.2929542318769462e+07  2.2600658531074431e+07  1.9150514040439162e+07  2.1717626440860160e+07  2.0113914254763648e+07  2.0852144538403414e+07  1.9694227365819417e+07  2.1070162366083235e+07  2.4041486497362100e+07  1.8245266540324796e+07  1.9041365958587091e+07  2.2302128330263790e+07  1.9900236726162393e+07  2.2995910140525125e+07  2.2344738751333423e+07  2.0563863943884186e+07  2.0062936944315478e+07  2.1528504867162336e+07  2.2058328837799925e+07  2.2015870512064345e+07  1.9533696299913082e+07  2.2323838031186838e+07  2.0401427773071557e+07  2.3116318918064713e+07  2.2329086475995727e+07  1.9370581103824161e+07  2.2750510086254086e+07  2.1375222016863164e+07  2.1496840150681946e+07  2.1992901779223669e+07  2.0879095423613772e+07  2.0471868875049632e+07  2.0859858066702254e+07  2.0964173845409233e+07  1.9655354105981596e+07  2.3557225984856192e+07  2.3632513864158627e+07  2.3033904009398073e+07  2.3946368221525148e+07  2.0249520056631666e+07  1.8757260696640979e+07  1.9297257718408518e+07  1.8868027647323761e+07  2.0230412762899015e+07  2.1512210315899905e+07  1.9616860484049179e+07  2.1208794278574537e+07  1.9861019131932862e+07  1.8396154343506973e+07  2.0553320687779818e+07  2.2133129497615218e+07  2.1814691136039130e+07  2.0712050363421377e+07  2.1857646267535470e+07  2.2342816380406905e+07  2.0042247028018609e+07  1.8890145404357761e+07  1.9205255453176998e+07  2.0381794656651296e+07  2.2322113336818546e+07  2.1996260466946751e+07  2.2640122038352739e+07  2.1782770786995176e+07  2.2058218376056254e+07  2.2593593876656402e+07  2.1655736839985292e+07  2.1546775340332441e+07  2.2777328456377577e+07  1.9719198368337654e+07  2.1284499864846855e+07  1.9315371373628139e+07  2.0708368258049387e+07  2.1905782762139302e+07  1.9673538118468273e+07  1.9875426697383508e+07  2.2498519828173686e+07  1.9498301918906569e+07  2.2078890645775210e+07  2.0941883522276577e+07  2.1597955603682823e+07  2.2775451067722622e+07  2.0000951921219453e+07  2.3080555787857771e+07  2.2653988816499736e+07  1.9577656917337578e+07  1.8838262201092388e+07  1.9221390298717838e+07  2.2613711116213731e+07  2.1849632034945130e+07  1.9797528627700109e+07  2.2324956808353569e+07  2.0382317635088768e+07  2.0504424105574440e+07  2.3238602841542896e+07  2.2900376330727987e+07  2.1889073652942613e+07  2.1099098776636321e+07  2.2194255137593370e+07  2.0304265125685710e+07  2.2928414047992326e+07  2.2344720095993470e+07  2.1472599082867030e+07  2.1100017085670285e+07  2.0924961204814058e+07  2.3339052633103918e+07  2.1819763617118951e+07  2.2336271537799805e+07  2.2766509705341466e+07  2.2121723616672110e+07  1.9872260585537732e+07  1.8504271445725102e+07  2.3931441257175490e+07  2.0113353803612020e+07  2.4371295920880962e+07  1.9104559807057098e+07  2.3467249601308346e+07  1.8016323898304693e+07  2.3205498051912211e+07  2.3201423265483078e+07  2.2631316486970242e+07  2.0036474348306976e+07  2.1731016401237585e+07  2.1161403344130434e+07  1.9300580967648499e+07  1.8561075100223947e+07  2.2155759854795557e+07  2.0480188204813149e+07  2.0967676080337163e+07  2.1441292748639941e+07  1.9007286493878096e+07  2.0637743417083673e+07  1.9945251278131820e+07  2.2248250755068552e+07  1.9454817379219394e+07  2.1296068536633495e+07  2.1115624254089683e+07  1.9002358667914089e+07  1.9015826563332543e+07  1.9775673920878027e+07  2.1566924765196104e+07  1.8020141663212508e+07  2.1841818965357434e+07  2.1735914248642471e+07  2.0008687080789406e+07  1.9929661117515124e+07  2.1350234659319591e+07  2.4308613328179516e+07  1.9048352648256090e+07  1.8501586635161594e+07  2.1336847263319626e+07  2.0306372266462877e+07  2.0604068187832117e+07  2.0264543795599896e+07  2.2471488120304056e+07  2.2173525643967696e+07  2.2454516974579148e+07  2.0621982965002321e+07  2.3775285166175116e+07  1.9255901184865531e+07  2.2789129074742395e+07  1.8460786834632523e+07  2.0612396566527616e+07  2.1539193988825418e+07  1.9689026301965009e+07  2.2120352663856428e+07  2.0120404746845122e+07  2.2229357211992670e+07  2.2505666197481316e+07  2.2177644797228534e+07  1.9841107618388627e+07  1.9894463329111423e+07  2.2535914546457272e+07  2.1192039486680087e+07  1.9331895900994856e+07  2.3618981094883665e+07  2.3878182470881514e+07  2.1846705067379985e+07  2.0472827006712660e+07  2.2083659313550454e+07  2.1571365828121211e+07  2.2543044931196041e+07  2.1485848690825284e+07  2.0113723188271247e+07  2.0937676665080503e+07  1.9224880942271829e+07  2.1275351800455447e+07  2.2916449456233349e+07  2.2048200735787332e+07  2.2030659995764609e+07  2.2222342819573164e+07  2.2172269208211958e+07  2.1673710405127522e+07  2.0111997493948892e+07  2.2510857194669768e+07  2.1605380573298387e+07  2.1194871129922092e+07  2.2430458703014769e+07  2.1246842786747031e+07  2.2193394620173443e+07  2.1786298408284429e+07  2.0618752564409140e+07  2.1096515542058732e+07  2.3404550783606444e+07  2.2854582618230823e+07  2.3106292134829320e+07  2.0853254009366367e+07  2.2032990005698211e+07  2.2165724046503555e+07  2.1982750254950318e+07  1.9283353783353008e+07  1.9597193897659760e+07  1.9742937791010048e+07  2.3584159645920549e+07  2.3315011939031966e+07  2.0768296110720798e+07  2.0217651111602753e+07  2.1814436114252511e+07  2.0229873690054316e+07  2.1938433813605797e+07  2.1980337562363226e+07  2.0391624288665373e+07  2.0759967389404230e+07  2.2207013490262747e+07  2.2886925774556685e+07  2.2182244524826616e+07  1.9344204042501092e+07  1.9508049150219519e+07  1.9559166949274316e+07  2.0107543063906755e+07  2.2459119524594843e+07  2.1866496221749060e+07  2.2458709940674547e+07  2.1997830174211152e+07  2.0822223494073737e+07  2.1700261362337418e+07  1.8641960753751833e+07  1.9639950832136415e+07  2.0650507272538729e+07  2.3040045092875417e+07  2.0262104386302773e+07  1.9862913614173409e+07  1.9359354684522275e+07  1.8672910586300101e+07  1.9541496059260584e+07  1.9406020171041738e+07  2.1452364937774934e+07  1.9091349795147929e+07  2.3801105901491910e+07  2.3462675819262207e+07  1.9940989718167793e+07  2.3072488120793059e+07  2.2824167563308224e+07  2.3665588869815603e+07  2.0122767481651038e+07  1.8257237551880676e+07  1.8256022187818542e+07  2.4117771493050743e+07  2.0905479112499271e+07  2.0125070004114334e+07  2.1257231386822257e+07  2.0690007650149077e+07  2.4064912348964725e+07  1.9083479306830186e+07  2.1761987095437106e+07  1.9493579746344551e+07  1.9749319018682800e+07  2.0573374811579991e+07  2.0815352310128681e+07  2.0257253549401097e+07  2.0738457344995826e+07  1.9085925303677659e+07  2.1983845871833175e+07  2.1778345881360542e+07  2.1679015359804418e+07  2.0400740662545867e+07  2.0094844194929104e+07  2.1649977373559255e+07  2.4216529173933443e+07  1.8136262240865782e+07  2.2498780613287762e+07  1.9985478729573768e+07  2.0458847671959274e+07  2.2500716252506617e+07  1.8829341340235572e+07  1.8960849914913382e+07  1.8722226970343240e+07  2.0437210712660488e+07  2.1002707369537707e+07  2.1864640913711865e+07  2.1486579323042631e+07  2.0946948050272662e+07  2.1436895127142027e+07  2.1622073116680328e+07  2.1400009453315482e+07  1.9711870184064653e+07  2.0605960201620236e+07  1.9472414690252136e+07  2.1749231320821907e+07  1.9703152210879147e+07  2.1872477166457396e+07  2.1465861143971052e+07  2.1733267318283126e+07  2.1793468697252892e+07  2.2183383255781960e+07  2.2330854622144658e+07  2.1960997502093669e+07  2.0421738225368377e+07  2.2135725213136945e+07  1.8844349447719604e+07  2.0282786310761757e+07  2.0051495221440021e+07  2.3272988884140618e+07  2.1999402854719616e+07  2.0519266807735603e+07  1.9793065136570133e+07  2.0131147214374825e+07  1.9161331075229071e+07  2.2337911587365981e+07  2.1089502728519220e+07  2.0444899252321877e+07  1.9008189648410942e+07  2.0432217470669184e+07  1.9593779332237367e+07  2.2825334717271473e+07  2.2693203326292526e+07  2.2509164452345919e+07  2.2189085320482723e+07  2.2310322433100127e+07  2.2158033355424155e+07  1.9673210065998558e+07  2.0285623914186195e+07  2.2416432981831942e+07  1.8828822791705534e+07  2.2022278390599385e+07  2.2258301553022768e+07  2.3395307916014142e+07  2.1167373570109565e+07  2.1796256022417024e+07  1.9651761579174642e+07  1.9323068434290070e+07  2.2463071981898163e+07  2.2625765114935424e+07  2.4047321512162101e+07  2.2705858150078163e+07  2.0407685419325039e+07  2.2204121375244606e+07  2.2464323246742405e+07  2.0919803314164151e+07  2.2623588354866631e+07  2.1254585645225339e+07  2.1662730375414796e+07  2.0335890264160350e+07  2.1040634834366523e+07  1.9228323453927923e+07  1.9962176743910056e+07  1.9809911897679072e+07  2.0801023930613182e+07  2.1575656490855411e+07  2.1978147943408471e+07  1.9831257209637798e+07  1.9510581893793277e+07  1.9368083627321035e+07  1.9421866662680790e+07  2.1394095813990019e+07  2.1165704013657242e+07  2.0668894425676107e+07  2.1081161393943429e+07  2.3793598036764346e+07  2.0201634746987008e+07  2.0685061865378048e+07  2.2019099687350724e+07  2.1380349784879576e+07  2.0082497997402966e+07  1.8742692007045075e+07  1.8378307068436891e+07  1.8564643820113104e+07  2.3272079056610178e+07  1.9481251707885139e+07  1.9861853117947001e+07  1.9058449387330201e+07  1.9217387255307108e+07  1.8573825201678090e+07  2.0037287788707502e+07  2.0342791300742641e+07  2.1735027446852762e+07  2.2112178760754909e+07  2.2761406507175907e+07  1.9838070335250542e+07  2.1656321401851799e+07  2.1689845804973330e+07  2.0276378519031059e+07  2.0068366931944333e+07  2.2361961918815024e+07  2.1094673561021224e+07  2.3771593755183026e+07  2.2363937528989080e+07  2.0409488732551020e+07  2.1929116086196937e+07  2.2960543117358204e+07  2.2672625108465046e+07  2.3097680846470699e+07  2.1460174480838381e+07  1.9964718295659527e+07  1.9925630005076803e+07  2.0009913438276023e+07  2.1568609544650145e+07  2.2519132682173431e+07  2.1688424448704537e+07  1.9066100429415140e+07  2.0454609304237094e+07  2.3126280304951012e+07  2.1236476402158406e+07  2.0898173239978369e+07  2.2461819507654421e+07  2.3853558960618634e+07  2.2630616130004045e+07  1.9411563164380241e+07  2.1261171716402184e+07  2.2278858029533967e+07  1.9736505193748590e+07  1.9187539598493837e+07  2.1892265194443349e+07  1.9498683348161150e+07  2.1589325493342467e+07  2.1506844577952113e+07  2.2844411524096373e+07  2.2213415211740687e+07  1.9743328572657119e+07  2.2185987690843590e+07  2.1994034622683086e+07  1.9125147680815089e+07  1.9485313452625278e+07  2.0641876239244584e+07  2.1532131248568330e+07  2.2474262166761804e+07  2.2688204802898340e+07  2.2830829096618485e+07  2.1691848557158664e+07  2.0556437725062408e+07  2.0031735725376934e+07  2.1173843602294877e+07  1.9539434433328353e+07  2.2479075005247153e+07  2.1569084988888666e+07  1.9354323590810925e+07  2.2109538516219713e+07  2.1222757045616221e+07  2.2666480624351222e+07  2.2767222532241262e+07  2.2998597546264101e+07  1.9883744543385413e+07  2.2232023854351573e+07  2.2043260220450956e+07  2.1914186688123528e+07  2.3359381129092764e+07  1.9615885465515397e+07  2.1967263651421886e+07  1.9713548398207773e+07  2.2709350580653057e+07  2.1844489158551723e+07  2.2497852772438943e+07  2.2067021567928657e+07  2.2297073100430001e+07  2.1164020572636578e+07  2.1179698313456878e+07  2.1267357654362801e+07  2.2461316245231621e+07  2.2317509861346960e+07  2.2327444172259994e+07  2.0501659244184889e+07  2.0622862057748083e+07  2.0281130057125807e+07  2.1997264055515558e+07  2.0650536534032341e+07  2.1774459299147286e+07  1.9836387193309151e+07  2.3025268017538920e+07  2.2924073423137125e+07  2.3167162271961421e+07  2.1311821384308051e+07  2.1405084181407616e+07  1.7907224878426984e+07  2.0464861240993820e+07  2.0348238918156572e+07  2.1381604992729858e+07  1.8868084742614824e+07  2.0125536865016259e+07  2.0450907091258083e+07  1.9690657329087246e+07  2.4470455565431654e+07  2.4438863217143074e+07  1.8858627040103104e+07  2.1310411801239189e+07  2.1987589205402084e+07  2.1934356498127639e+07  2.1777130434128638e+07  2.0266426044322893e+07  1.8815797558556374e+07  2.1888440106275171e+07  2.3649365652212445e+07  2.2210117084620304e+07  2.2280597911125764e+07  2.2123621929131210e+07  1.9328815050878230e+07  2.1028002341234151e+07  2.0812463673972689e+07  1.8355857488926027e+07  1.8383033901433785e+07  1.8722408141553022e+07  1.8494830104704648e+07  2.3091106278569404e+07  2.2891701260946218e+07  1.9855849747598976e+07  2.1413491326533750e+07  2.0644742596680637e+07  2.2227021130640682e+07  2.2362476365295742e+07  2.0244152923756689e+07  2.0168514093951982e+07  1.9150389406096876e+07  2.0269948946571492e+07  2.1475398803901404e+07  1.8673960169775493e+07  1.9589794153053273e+07  2.1087241957963675e+07  2.3034163993339200e+07  2.3375988732019641e+07  2.1889446010972291e+07  1.9245749232081879e+07  1.9165854238477033e+07  2.2979712557102572e+07  2.1317827021647297e+07  2.0692613596333053e+07  2.2199027249275580e+07  1.8520570586868547e+07  2.3423978806281183e+07  2.3228306745066911e+07  2.3223445213890254e+07  1.7909716588725034e+07  2.2847524651988484e+07  2.1433800866588581e+07  2.0698979945329204e+07  2.1119196845438693e+07  2.2793879009702262e+07  2.2662571634542890e+07  2.2477604287971292e+07  2.2377707560777262e+07  2.2418642201267894e+07  2.0279261200118106e+07  2.1880553818247482e+07  2.1906466691519905e+07  2.1898918229655851e+07  1.9385019689830046e+07  1.9870640556280740e+07  2.1373412876335189e+07  2.1182510441187438e+07  1.9916778241005506e+07  2.2503402910793480e+07  2.2650502963112704e+07  2.2646483427923091e+07  2.3220049800295047e+07  2.0178944352802012e+07  1.8953579630288616e+07  2.2572118743827790e+07  2.3814096810462724e+07  1.9818184631362587e+07  1.8621963231784381e+07  2.0049104771323014e+07  2.4267810501473952e+07  1.8130857294690877e+07  1.9690429750704650e+07  2.3580821070291750e+07  1.9253366658511281e+07  2.0815616919419110e+07  2.1312188960227128e+07  2.1023578933833521e+07  2.2083756472630695e+07  2.2373130066860229e+07  2.1919978295838725e+07  2.1866539833842728e+07  2.3370516522755481e+07  2.3366209413394127e+07  2.3552027560944047e+07  2.0736943764228549e+07  2.0865551805804763e+07  2.1173691031426024e+07  2.1884559240545686e+07  2.2232278145798042e+07  1.8876044185819641e+07  1.9058475261749726e+07  2.2138010564055160e+07  2.2100352069652077e+07  2.0436389410806149e+07  2.0672404107640829e+07  2.0772623670014195e+07  2.2314519811382990e+07  1.9837781548641946e+07  1.9938128962321285e+07  1.9973708524943933e+07  2.3121995795510292e+07  2.2093765546071678e+07  2.2041079183979820e+07  2.2128894060426299e+07  2.0889654480614390e+07  1.9290059573340070e+07  2.2244217342964847e+07  2.1685628378106732e+07  2.0097015913962249e+07  1.9979417456988819e+07  1.9891477950930513e+07  1.9328048729842685e+07  2.1535442241239406e+07  2.0980314794004917e+07  2.1161852035716236e+07  1.9824653225688260e+07  2.0788398088091198e+07  1.8954938363964994e+07  2.1690448326870382e+07  2.1406457128815062e+07  2.1649827944337528e+07  1.8412351595260397e+07  2.1843363752831992e+07  2.0893195468470551e+07  1.9571457096701346e+07  2.2232448724334143e+07  2.0672040935390603e+07  2.3100702100369342e+07  2.1473905635863137e+07  2.1707685619140524e+07  2.3640725547436170e+07  1.8867069020464234e+07  2.1252795172168553e+07  1.9364989791813940e+07  2.1760780623365987e+07  2.1259487347800948e+07  2.0241874778378684e+07  2.2293525029555980e+07  2.1541796112136900e+07  2.1571305593168430e+07  2.2885314844239235e+07  2.0207268532015733e+07  1.9150302619363997e+07  1.9620095449802589e+07  1.8937913881434303e+07  1.9140098279872857e+07  1.8642948835053425e+07  1.8430984537666872e+07  1.9627340199896265e+07  1.9767259699945759e+07  2.1657771464711536e+07  1.9442022366010524e+07  2.0152541941371582e+07  2.0161218961717892e+07  2.0210382646139156e+07  2.1968267070151798e+07  1.8947229253901228e+07  2.1583634843606111e+07  2.1630411149769444e+07  2.1710292241690647e+07  2.2008807556232918e+07  2.2016049864664670e+07  1.8941782986166961e+07  1.8950259770737700e+07  1.9165907342357479e+07  2.2721678913525347e+07  2.2888713950351056e+07  2.0884936423440341e+07  2.1751854321867485e+07  1.9960978436420184e+07  2.1864275151971307e+07  1.9861635880708516e+07  2.0020419343421564e+07  1.9811527546506796e+07  1.9973134373382125e+07  2.2448204893726058e+07  2.0705997084696859e+07  1.8697008486154802e+07  2.0488274720240299e+07  1.9112010556177031e+07  2.2093750795895841e+07  2.2112305222189136e+07  2.2054556402278904e+07  2.0933780082749203e+07  2.1448208152650561e+07  2.1742617039642010e+07  1.9958911539407887e+07  2.1945298547619175e+07  2.1918586854017261e+07  2.3502104656224914e+07  2.2421795024440277e+07  2.0985244882115208e+07  2.0983577465463184e+07  2.0427427217473872e+07  1.9794602839344524e+07  2.2387075153989207e+07  2.0800935989754934e+07  2.0394163600385595e+07  1.9687725610261891e+07  2.1693169118564285e+07  2.2126475302425642e+07  2.1041911557267316e+07  2.1894368391749885e+07  2.1257333766581204e+07  2.3627249326505605e+07  2.3471449562176242e+07  1.9195345880820021e+07  1.9289358131713778e+07  2.0237922263123747e+07  2.3933941754723057e+07  2.4041972478944849e+07  2.3740644772346273e+07  1.9644778563179862e+07  1.9522560883325193e+07  1.9416396695739038e+07  2.0578236025495224e+07  2.0420862662887529e+07  2.0159249146638524e+07  2.2773937288861059e+07  1.9940654513264820e+07  1.9997124657489602e+07  2.0191560363091372e+07  2.2160771058953162e+07  2.1110318765643869e+07  2.2540607452307265e+07  2.2376024085198920e+07  2.2096718749854423e+07  2.2248161881392077e+07  2.2108196575466536e+07  2.2097378581361264e+07  2.2105304762106266e+07  2.2262559821606938e+07  2.2434542531873669e+07  2.3910965756154671e+07  2.1219195472817291e+07  2.2379236924329039e+07  2.1726572070698928e+07  2.0486330935948648e+07  1.9147702214790273e+07  1.8558139608464327e+07  2.3112212872480836e+07  2.2697375319478776e+07  2.2531275482906222e+07  2.2217398688835170e+07  1.9582176323329896e+07  2.0837586419316534e+07  2.4175469944765382e+07  2.0008262833175581e+07  1.8132497787000354e+07  2.3908434661123201e+07  1.8666731564330503e+07  2.0641560166080453e+07  2.1362429557471376e+07  1.9760933899624355e+07  2.2146793653922908e+07  2.3744631389103532e+07  2.2139012303526647e+07  1.8716485132596720e+07  2.0913755716207154e+07  2.1120819687395047e+07  1.9519765367841378e+07  2.3506942041523997e+07  2.0637315698476788e+07  2.3779091291910995e+07  1.9915580866182115e+07  2.2786792005340204e+07  1.9809799321159068e+07  2.3023654164506137e+07  2.0142842553900391e+07  2.1415792963655919e+07  2.1443259152814850e+07  2.2243052632599998e+07  2.0237934729662508e+07  2.0099080049270757e+07  1.9410403791622221e+07  1.9248346995914243e+07  2.0305145172512323e+07  1.9440522291093472e+07  1.8043474538074661e+07  2.0646023809492774e+07  2.0445612