<?xml version="1.0"?>
<VTKFile type="UnstructuredGrid"  version="0.1"  >
<UnstructuredGrid>
<Piece  NumberOfPoints="3002" NumberOfCells="5870">
<Points>
<DataArray  type="Float64"  NumberOfComponents="3"  format="ascii">323455.6100285493 6048753.88242996 0  323455.6100285493 5954782.59950515 0  405920.1480513444 5954782.59950515 0  405920.1480513444 6048753.88242996 0  405920.1480513444 6001768.240967555 0  323455.6100285493 6001768.240967555 0  364687.8790399469 5954782.59950515 0  364687.8790399469 6048753.88242996 0  364687.8790399469 5996367.117560402 0  323455.6100285493 6025261.061698757 0  382226.6271443229 6022560.499995181 0  405920.1480513444 5978275.420236353 0  323455.6100285493 5978275.420236353 0  353897.8957397301 6022560.499995181 0  344071.7445342481 5954782.59950515 0  385304.0135456456 5954782.59950515 0  405920.1480513444 6025261.061698757 0  354379.8117870975 5975574.858532775 0  381582.8168806895 5978840.396198289 0  384950.2598624413 6001768.240967555 0  344643.0480768835 6003429.02033719 0  344071.7445342481 6048753.88242996 0  385304.0135456456 6048753.88242996 0  339717.0321562298 5986078.187627405 0  337515.036058786 5969821.016310448 0  368062.2614420265 6013076.224998265 0  368062.2614420265 6032044.774992097 0  393987.6142659165 5988729.699941677 0  405920.1480513444 6013514.651333156 0  392856.2821527076 6034589.119828064 0  393514.9611654527 5968369.338068204 0  339399.8087404341 6032061.482581838 0  323455.6100285493 6013514.651333156 0  374995.9462927963 5965504.865595459 0  354379.8117870975 6037976.901948514 0  338123.9088969378 6017031.529131207 0  367397.3120126425 5982072.559192053 0  351882.5752379905 5991998.990225234 0  376945.425450199 5991232.708824487 0  392265.0061656896 6013300.936254065 0  357029.7426706699 6006608.947964352 0  380093.6207558212 6036880.127749795 0  323455.6100285493 5966529.009870751 0  405920.1480513444 6037007.472064359 0  405920.1480513444 5966529.009870751 0  323455.6100285493 6037007.472064359 0  333763.6772813987 6048753.88242996 0  405920.1480513444 5990021.830601954 0  323455.6100285493 5990021.830601954 0  362879.3643765316 5966837.319094267 0  348367.6438548031 5965604.161682394 0  334493.1989038612 5996935.948935225 0  395068.5043068817 6023875.372615605 0  348216.0324377587 6013504.844950221 0  379305.9090074943 6011603.390019651 0  372523.5158233726 6003480.000732267 0  395435.2039568929 5999384.346358113 0  395612.080798495 5954782.59950515 0  333763.6772813987 5954782.59950515 0  395612.080798495 6048753.88242996 0  374995.9462927963 6048753.88242996 0  374995.9462927963 5954782.59950515 0  354379.8117870975 6048753.88242996 0  354379.8117870975 5954782.59950515 0  335074.5981535012 6007206.680367459 0  391925.2695590468 5978591.908877409 0  371969.1707190623 6022560.499995181 0  383872.162544519 5969415.106147043 0  358038.7139835292 5984533.09712744 0  369699.869182786 5973102.2359358 0  369841.9126663716 6041099.453006387 0  343176.7440329155 5994428.220622956 0  362933.5332293962 6024385.235173292 0  330640.1760208776 5984148.625419154 0  348684.7494355051 5983110.856817525 0  399094.9690929834 6007537.420809742 0  345447.6324516311 5974162.84917082 0  332859.7749513451 6039150.972778062 0  344517.044630671 6024057.945416138 0  332973.1214415312 6025037.914505113 0  341428.0126373461 6040493.820728126 0  385874.264691618 5992757.40885039 0  350337.3662538711 6030387.535304286 0  359887.2373602368 6016186.250094838 0  377097.8989316926 6029115.217702097 0  338917.7109078235 5961484.016839475 0  329495.5261590715 5972402.215053552 0  336644.7280634616 5978216.610794215 0  330688.6715098422 5962480.256438018 0  359899.8039476132 6031963.415584587 0  399746.255941904 6030426.523907755 0  385511.6875144855 6030368.508996127 0  387377.735783329 6040763.821024337 0  398832.192399829 5974431.100387635 0  387992.9498994246 5962432.032572681 0  405920.1480513444 5984148.625419153 0  364925.7641745284 6005782.953640081 0  361769.877068089 6041226.651684469 0  398452.9199001931 6040850.732439541 0  398946.6205243983 5962252.502309519 0  362305.5577564609 5975984.89789681 0  356822.8065216601 5998470.186307689 0  386900.7115926162 5984820.732438302 0  329528.0119279922 6032067.230024892 0  331139.6939744562 6013813.572928222 0  398457.5876798834 5982541.698799337 0  405920.1480513444 6019387.856515957 0  398685.5166750694 6017257.578706384 0  348587.9424884976 6042755.309150081 0  369841.9126663716 5960143.732550304 0  380149.979919221 5960143.732550304 0  359533.8454135222 5960172.384722514 0  377147.8814772839 5972649.581024994 0  341756.3455763521 6010124.092444684 0  355615.8176864882 5966311.193813809 0  369144.4338274571 5989807.770003954 0  375185.9047422862 5983510.422041401 0  323455.6100285493 6007641.446150355 0  391856.7960121195 6005888.565703365 0  371978.0245217044 5996361.134308098 0  405920.1480513444 5995895.035784755 0  378877.1880032702 5998073.745937059 0  359056.6617417652 5991643.489540118 0  399278.8743430426 5993436.466134224 0  386116.8775939071 6009922.097099247 0  323455.6100285493 6019387.856515957 0  388994.7833819839 6019826.789191471 0  348897.6207366391 5998116.079250046 0  345456.3301153719 6035064.814295612 0  323455.6100285493 6042880.677247159 0  334124.3013408988 5990072.953472659 0  377097.8989316926 6018059.782440464 0  323455.6100285493 5995895.035784755 0  342871.8474798963 5980154.238874755 0  373596.9793292385 6035659.183886081 0  380149.979919221 6048753.88242996 0  376327.9292813152 6042294.581731233 0  329163.3548105369 6004704.843558955 0  350303.9432136903 6007093.032074522 0  383982.6552804571 6015912.664375832 0  345515.490569988 5988567.439252969 0  379019.812877927 6004678.052169549 0  365541.9137639466 6018750.691894444 0  349225.7781606728 5954782.59950515 0  352493.3399767278 5960815.406895458 0  363683.8130458911 5986976.225872464 0  386666.791301207 5975084.583584332 0  368937.6553346639 5966171.092344863 0  400003.9882214358 5968352.273777306 0  328776.0063842635 5992958.433193355 0  339958.4428758043 5999572.344589042 0  354577.7732363954 6012555.454074449 0  328609.6436549741 6048753.88242996 0  382053.0280278458 5988228.496807038 0  330708.6817934912 5978212.973348036 0  372084.7734679543 5978495.086505585 0  358568.2738174705 5971419.415228934 0  328931.2672829705 5998832.905089681 0  323455.6100285493 6031134.266881558 0  405920.1480513444 5972402.215053552 0  405920.1480513444 6031134.266881558 0  323455.6100285493 5972402.215053552 0  405920.1480513444 5960655.804687951 0  323455.6100285493 5960655.804687951 0  405920.1480513444 6007641.446150355 0  323455.6100285493 5984148.625419153 0  405920.1480513444 6042880.677247159 0  346648.7613474604 5960023.05127712 0  342415.3891593561 5966358.988213831 0  350507.6510228226 5971111.740321856 0  391773.9667214506 5994456.117700323 0  338875.8905424621 6026088.827345025 0  361429.1735454847 6010511.262533597 0  389395.7028803263 6025805.543023561 0  392895.6464692951 6043315.288173481 0  332846.8296575367 6019296.633131165 0  373337.4404588729 6009693.515402478 0  336544.3064612215 6043648.151399015 0  348610.2411382072 6019567.839754772 0  381943.4597763228 6042183.394750732 0  355630.0631288611 6028071.82801846 0  363941.5238882306 6035967.852698964 0  328179.67203552 6022271.326978176 0  401066.2857736665 5998807.415073814 0  344387.1099621175 6029612.545574771 0  393435.2235156003 5960233.556458537 0  400735.9970493424 6022675.638064924 0  393708.5772019727 6029179.837160029 0  400609.0696943338 5987857.851798974 0  361753.6614662939 6001152.171757337 0  400766.1144249197 6048753.88242996 0  353363.0524357285 6002630.165620538 0  343248.328463803 6018790.640008039 0  356419.8105951758 6043365.392189237 0  390234.385899412 6000759.497967276 0  368336.1168551637 6000220.532318851 0  328609.6436549741 5954782.59950515 0  387520.8298169724 6035372.992507171 0  400588.0280660195 6035823.299583429 0  329021.6598427091 6043194.252697862 0  393371.710206733 5983576.325812268 0  393638.9721728675 5973623.513063556 0  371727.9212466564 6017113.044457142 0  364687.2762977295 5959941.212693035 0  374995.9462927962 5960346.83186599 0  369841.9126663716 5954782.59950515 0  400766.1144249197 5954782.59950515 0  338917.7109078234 5954782.59950515 0  369841.9126663716 6048753.88242996 0  359533.8454135222 5954782.59950515 0  390458.0471720704 6048753.88242996 0  338917.7109078234 6048753.88242996 0  390458.0471720704 5954782.59950515 0  359533.8454135222 6048753.88242996 0  380149.979919221 5954782.59950515 0  349225.7781606728 6048753.88242996 0  339867.4956514095 6005339.817053361 0  333737.9460226952 6002130.523287664 0  336955.8140048417 6012008.440073739 0  377097.8989316926 6023232.32559834 0  371748.9790486701 6028016.629988787 0  338146.5171983215 5993298.164761053 0  355016.8390227688 6017610.913088997 0  393953.1528190996 6018968.416019509 0  335185.8133477239 5965142.63403323 0  328616.6041642396 5967263.80307608 0  380314.9487662361 5965460.362415641 0  354622.8993466098 6032976.142863722 0  328521.4725131759 6027215.026914048 0  334465.0783479523 6034070.534389696 0  328123.6212682287 6009699.206425843 0  381889.5169855529 5973936.741901617 0  359122.3484437474 6036790.002992895 0  386341.6533148278 5979963.279841923 0  400798.2159679119 6012477.871311778 0  388538.3765260249 5967461.292146791 0  340833.8784183678 5975728.708105717 0  355307.6239213505 5988552.151815021 0  362181.4274823388 5981261.937800813 0  353784.0322742948 5981044.538811012 0  358045.1698423899 5978741.391518688 0  328423.7350325213 6036912.015930048 0  366897.6876966125 6027277.723668203 0  347355.1745641421 5978532.307510624 0  376820.5060332146 5979033.270735624 0  349378.1778589479 6024378.632814493 0  327189.2282939323 6016451.253924556 0  338433.8773236172 6036753.902881841 0  350141.9760340559 5987605.90026687 0  363794.7083927878 5991713.491814731 0  350325.1285660182 6035273.515460094 0  382355.9358007369 5983507.499638396 0  327107.0747437811 59811
[...]
<PointData  Scalars="f_58-1"> 
<DataArray  type="Float64"  Name="f_58-1"  format="ascii">-4.2318728113208663e-23  3.3849754999374122e-23  3.1826889278457486e-17  -4.0938983490305395e-21  6.9848536683461456e-13  -1.7168239155244695e-16  8.6069979590927047e-16  -3.2348607176957135e-17  9.4818007201842667e-03  1.3260487839079186e-18  5.2846494225108677e-10  1.4343548922563924e-12  1.2174900296175020e-18  7.3225775162217147e-09  1.9957657503878391e-19  8.7593760301352146e-15  -2.0820097307105721e-15  -3.1787876369219073e-12  2.1651374247652825e-06  4.5268097401824251e-05  -3.2726019448964402e-09  -6.2269273181094950e-19  3.6139181868171369e-18  -1.0888673983511068e-12  -8.4402136060057598e-18  2.3004679062287701e-04  4.3556395588775291e-11  -8.3368233624808183e-08  -1.6889790067774561e-13  -1.1240889438777567e-15  6.2001954323732070e-11  3.1576459268963939e-16  -2.2720185303309028e-17  1.8303843520820837e-11  1.6483712027481768e-13  1.0427725167964900e-12  -4.5738517809111610e-07  2.7820852771736756e-07  1.7564146691940916e-01  -2.6271685575374919e-09  3.4671195726892811e-04  7.0014511677528805e-13  3.1743797875719809e-20  -9.0570746980430787e-19  -1.8037752424478799e-15  1.6343208589892069e-19  -2.8621117995369395e-21  8.3899111570719454e-11  5.0849570962410946e-17  -5.5643474193299664e-12  -5.5030950064924047e-16  1.4402271735245556e-12  5.0720424020307571e-13  -1.2501966392184569e-10  -1.9334110727787586e-07  2.4189250786262707e-02  -9.8546398726784169e-09  1.6130175777034616e-17  6.7935909645539828e-21  9.8328612003014294e-20  1.2236017693259602e-18  4.5048670700222173e-18  5.5959537647100372e-18  1.0323578505649033e-16  7.2373196352467744e-12  4.0448386080512033e-08  6.3903862322459199e-08  -5.6211465492237926e-11  1.1245012946569094e-07  2.5714378625162970e-09  2.0337952765206543e-14  4.1957712133976374e-09  2.6818914548930305e-08  1.6274444391458660e-16  1.8613045986279939e-10  -1.5558661380544079e-10  4.4529231146445003e-13  2.4478769413850972e-19  8.8405432535631464e-13  -1.9697599157603987e-15  2.3545686950661374e-17  3.7732724916916824e-03  1.3468281607747826e-11  2.4163154905819783e-06  1.9538706186135920e-11  8.7593261776859466e-19  7.4568904521420953e-18  -2.3972987623548626e-15  -9.9539713272301824e-20  2.1151024151416612e-11  9.9318069923173990e-17  7.9991258082489755e-12  -1.4921584597953008e-17  6.7575278144945349e-11  9.7733140822028711e-13  -4.7979181572969051e-12  -1.4070066466663899e-02  3.7710054037872948e-14  -5.2975803987435665e-18  1.9556318351463715e-14  -7.1550678825594315e-10  2.0738905101904141e-04  7.8115920054709939e-06  -6.9231250032680796e-18  3.7268786697197262e-15  1.6709798413684207e-09  9.5424394857625446e-14  8.4117296359814211e-12  -6.7509077356824807e-17  3.0275904756278293e-13  -4.8249392000222981e-14  9.1236036215421469e-15  8.1798491259941120e-09  5.4463782740498258e-12  -8.9251981203951481e-14  6.5689455221373767e-05  6.7116476991587381e-05  5.2350597937980903e-16  -2.7152070465863426e-08  2.6520423295398330e+00  -2.4037515259642808e-12  5.6395840792230808e-03  -3.7618415641961260e-06  -3.3940277152426931e-09  2.5985040063666163e-06  -1.8384097393463901e-17  1.2602823865717996e-10  -5.3314579162264460e-08  -8.8834377896072493e-16  5.2717422102718871e-21  1.0697286546137182e-13  -6.9751504749147268e-08  4.6367605247775320e-17  2.7180462273873656e-13  3.6779869431889883e-13  -2.0140112291473498e-17  3.3419360796546250e-16  2.2945261129283332e-14  5.8194193771473886e-07  1.0173157041099284e-09  -6.4849160231272585e-11  -1.8622477571469193e-05  1.8148486601945502e-06  -2.2988498359916542e-18  -2.1837060434770731e-16  -4.7048070839716254e-06  8.1514865037636942e-08  7.6277765441533191e-12  1.6983088592395971e-14  1.6662145196905971e-14  -2.4237524513536300e-10  -1.7027458982182186e-07  -3.2350372835043240e-23  5.4442514414055950e-03  -2.6485512658104902e-17  -7.3523387363054207e-08  5.0864035387033319e-11  -1.0247897614757714e-14  8.6229266862559150e-21  1.4290613458160308e-13  -4.0152707137802338e-17  -2.0150507897848254e-19  -1.1993997459285840e-16  -2.5020882398316673e-22  -3.4566933753777773e-13  3.0223702828330941e-17  -2.9884598044614750e-20  -1.5405783890130809e-17  -5.3414510745222744e-17  2.7832921978067273e-14  -1.9595567066682109e-06  4.4865792183404439e-14  8.8240741379868909e-05  6.6872075872091924e-14  -5.1341424210705779e-18  5.3817939613230328e-15  8.5384952891966146e-05  -1.7527303769212277e-19  7.4668505263207879e-10  2.9583083768469829e-16  2.3635798160953336e-10  3.4060050409659660e-13  2.8474684855932944e-17  2.1524302920251965e-10  7.9698327364229104e-14  1.4096791187454292e-13  8.8980751164916623e-14  2.4643661112436916e-14  3.9665842002506339e-09  -2.0863495373153844e-03  -2.5973091674042071e-20  -5.6517543665394021e-06  1.3309233770354718e-12  2.5653407712478561e-16  6.8523829180641135e-06  4.2853131163855114e+00  -2.1319177744171694e-22  6.0132065928605159e-14  -8.5020960343126820e-19  6.7042245548826428e-23  2.2250166550644716e-07  -1.6985931797217137e-11  2.5811903378965559e-06  9.9008160732735499e-14  1.1412712525424562e-13  4.2439570224846745e-16  1.3404630355610776e-17  1.3119331469874390e-19  -6.6338003987991445e-17  1.9672942992060351e-16  9.5714799847479419e-20  7.0011199427745638e-20  1.4195372872423355e-16  2.9551442667241645e-18  3.5787054457472941e-16  -2.8202901659030237e-18  -4.7178390876460680e-11  -2.8432359934957891e-13  9.6672449224623189e-12  6.8288388724109832e-09  9.0774803252721475e-11  -4.4424675531533304e-12  1.2853026660088704e-07  9.5082617581522990e-11  -2.0821132928768000e-18  -2.8960099520735037e-19  -3.5652767976669255e-12  9.0516928150818567e-12  -6.9350617791502932e-18  1.0651103715050875e-17  6.4309959989075788e-15  3.4027372909915640e-09  7.6480648929775058e-13  4.3440266416424758e-07  6.1044410588523279e-11  9.6179364869694871e-11  1.7172446319190521e-14  9.8206568095638790e-08  3.6564937773663164e-09  9.9409640149815768e-10  2.2934320453868239e-09  -1.2239641855653005e-19  2.1080060658602250e-09  5.6985278433790738e-12  5.8535537666762867e-07  6.9380150229153942e-11  -9.6373176896641939e-17  1.0198363912518370e-17  1.2789841413669520e-08  5.7992859162067997e-05  -2.0508563701239855e-14  1.5437616215066956e-04  1.0484828996548490e-17  -4.8887721690185798e-14  -7.2572354117552644e-16  1.5280011925223774e-02  4.4036442589616704e-10  -1.1145625875808727e-10  -1.6151833317641797e-08  -3.9207216583232550e-16  -9.0537423976006912e-16  1.2402843043371779e-12  -1.9839239778947308e-17  -1.1123084499295111e-16  3.1938168542111606e-08  1.9455084205853481e-07  -6.6603699980853852e-17  -1.5892064087188933e-04  2.3291358903807082e-13  -4.2873620083980912e-09  1.5338219674534491e-05  3.1303110788956569e-02  -2.4821282415121375e-09  2.6607162715713064e-14  1.5679982358736466e-08  3.0985473999593600e-10  -2.9423103129050305e-09  -2.2456970766158205e-09  2.6224418615428473e-05  -5.3701632580916719e-12  -3.0504375155233370e-11  1.0802871835153781e-10  -1.6343306090122168e-07  7.6791767411236436e-05  1.1525798143266773e-04  -5.1749172459142235e-17  9.4610355074898719e-10  8.0081774972226743e-19  1.2524121405105689e-14  1.1957036639083087e-08  7.0408721482621938e-12  -9.2273730205588015e-11  6.7411595148036635e-19  1.2981647206080633e-10  1.1357804045588571e-11  1.9907253978913228e-03  1.7112358866393257e-13  1.0918111432313298e-19  1.2731809654115976e-18  -2.4032734351613553e-06  7.8872189501814536e-16  -3.4910873770525954e-14  -3.8199915844693329e-18  2.6584991379427659e-11  -1.6750488160231468e-19  -3.9574885161965143e-19  -4.6033500222721330e-20  -1.0879389987066977e-03  -1.3452042793032237e-17  2.0328849808533685e-04  1.8183022824331294e-16  -1.1840379087296938e-21  7.4369971965025367e-16  3.0588575745552801e-12  1.1178947625027682e-12  2.5348779383265985e-14  5.7875293772661576e-09  2.6036302274781241e-12  -3.1111080525086251e-15  8.6980686366093847e-17  2.1671902047027054e-12  5.4315612430995568e-06  4.4940574348949013e-04  4.4056892510336860e-04  3.1229874724024471e-16  3.4612079835558240e-10  4.8061831843752880e-14  -1.7374048163838179e-21  -2.4016558372431728e-19  2.1862641448371595e-12  9.8045459776747458e-12  4.9139081233774159e-13  3.8105394148702336e-12  6.2399686776621823e-16  2.0256856519002421e-15  -7.5228729651016994e-17  5.3657638539898710e-03  7.1574705675167618e-10  4.0127678365869950e-13  -7.9417593060115122e-09  1.6778254524899032e-03  1.9569122468765066e-02  9.2899734591099757e-03  -2.0059813538581663e-03  1.2033356096990399e-16  2.8635330728635918e-07  6.3333307731906950e-11  1.0614562680215765e-12  2.4541250826993803e-11  2.8444027451197407e-10  2.0032866712291225e-22  -4.1151915546906669e-20  1.2947715808387186e-07  2.5143809518466793e-13  2.0191679589620832e-14  1.6092833864705493e-06  -1.1253252019503203e-15  4.0440193533034208e-10  1.4227447831332452e-16  6.8357890247273970e-09  1.6740156418504529e-09  3.6719232483445333e-17  -1.8819913754284538e-19  2.1995888533566119e-05  1.2642361020894694e-07  3.1851944535626970e-12  1.7078098409080739e-12  8.2308001663086381e-13  -2.0318325213204319e-20  -5.5833842300538618e-18  -1.0544465709351354e-16  7.2297496734004577e-04  3.2334418964496198e-10  1.2274759272346944e-15  -1.6125648415938899e-15  -2.5906384981864566e-13  1.1412221647533384e-12  7.5638384218727066e-15  -2.2283798732424891e-15  -5.4991771112212592e-08  1.7018768923089070e-07  -8.5763633064245752e-13  -1.5222722007336674e-19  -2.0806356361309593e-13  3.2134118444184404e-11  -1.1451943683845855e-17  4.3355606521411321e-12  1.7979614315962051e-05  -1.5276295495113808e-10  1.2033011832604999e-11  2.2727899482483704e-14  -8.5607338902151528e-16  5.9730013208764395e-20  -1.9752421275888704e-14  -2.8137281369000181e-06  2.3923332454445766e-10  4.9615262562128450e-13  3.5567462150369646e-10  2.6003076324016764e-12  4.9243205509081656e-13  -4.3807443717939450e-11  5.6531428065463231e-10  2.8590275761866812e-17  6.0710148348197246e-13  1.1798350982339913e-08  -2.3374307911957068e-09  5.0881316376964837e-09  1.7604748838941491e-07  1.7417474840266537e-06  3.4947165521241298e-09  1.6776304002396204e-09  4.5357345928322844e-15  2.4041648822163165e-14  6.3627952864079704e-06  1.1150900001959499e-18  4.2223482182968971e-04  6.9484363731394136e+00  -4.8906842813952514e-20  -6.0525165412595437e-16  -7.4043346174808073e-08  3.8526180848417092e-12  6.3380656388520563e-06  3.7448974623793316e-14  -1.4085335430650634e-17  5.7884152369975876e-18  -1.4752432787575233e-17  4.9260590147796255e-17  -1.8937195885551989e-10  1.7710833551238860e-08  5.5428177097840705e-13  -5.1064758648912118e-12  -2.0325726048718696e-17  4.2578802350585642e-07  3.7687932357704179e-06  7.6068937044759567e-07  8.4198563629174778e-11  1.2901363965966582e-13  5.8560681161598432e-11  9.1525514277009743e-06  4.0504052684939170e-07  1.1425492091705637e-07  4.2066825757268844e-10  -3.0720568864423159e-12  8.7966686253498327e-01  -1.6125321623960429e-18  2.7441898390803892e-11  5.9327796397722537e-10  9.0255114635679026e-09  -3.2925779830699851e-15  1.6981880586369494e-13  -2.0301078033714463e-17  7.1596523842976978e-01  -2.4740756726010871e-07  3.4439697551954303e-13  1.3180768734392925e-07  3.5554694985983513e-13  2.8776955932948447e-16  1.7730186070969910e-09  1.1253536131456037e-12  1.5994971394978896e-05  1.5667248007392203e-15  1.8980626212155781e-16  6.5548971437144727e-13  -5.4702591623096964e-12  6.7525839197947032e-19  2.4782053926034749e-12  -4.2880986662464536e-16  6.6294806874326759e-09  -2.4842909021513715e-11  2.4481752978038599e-07  1.5549899986361554e-14  7.8493319961603381e-09  1.2616970055135015e-10  1.1221074149920792e-18  4.7934704134989092e-01  -5.0133608232799380e-16  3.2920630003089813e-11  2.4277181035903102e-12  -2.5324232288905415e-09  -2.5031532491063975e-08  4.8870528772077798e-17  -1.4021902298458192e-10  4.1249595088988051e-03  4.2960075155672233e-14  -7.3245730560613181e-12  6.7067939104367605e-13  3.6985810385574028e-13  4.0230404979606980e-16  5.7751511696235845e-12  -2.6368336866502404e-06  3.2432856329808697e+00  4.9944063949484123e-11  4.1449600524266912e-12  -2.5953283493387188e-20  -2.3636076612481963e-14  8.0717225112288563e-09  -1.3650418487054319e-07  -1.7564825538144157e-15  -6.4412611940900226e-16  -2.2103282878614205e-16  6.8376728140242633e-08  2.1683774969124116e-19  -1.0483850142836446e-18  1.1074150809332261e-18  -5.8850399810641889e-17  4.6143154613302187e-08  8.9035836589471131e-07  1.4422319193401898e-07  1.3378589629325689e-16  2.0620522663178254e-07  -6.5077693737380945e-14  4.9017514825251578e-09  -2.6571814382083388e-15  -5.9406296930080607e-06  -5.3702005119322668e-08  2.4612822765388598e-09  5.6528061714165184e-11  2.9638225918736469e-11  1.0726249739971405e-10  1.8436702692468186e-02  -2.3557249264388914e-04  -4.4424978087542419e-07  8.3382263294820418e-08  -5.7358796682872985e-16  2.6801762356567339e-04  -7.2495375867884453e-18  1.1058703339152497e-16  2.5333839869317976e-16  -2.7741541037915305e-17  -1.5865712092047177e-16  -1.6290084167295796e-15  -2.1446174103605323e-20  -4.6940874846596179e-08  -1.2274059905826017e-15  -1.5167426964385862e-18  2.9623109296647601e-17  8.1375981918157682e-14  1.9694537167112534e-13  -6.2841424944381437e-11  7.9184948290036035e-22  -9.5739336703103876e-23  3.7650743962479226e-16  5.6702486626012525e-24  -3.1362684364749397e-07  1.3445996056885300e-06  -2.6570548621506333e-06  2.1353548851634364e-04  3.9519635686041293e-14  -2.9116419542538758e-06  -1.2463147931631159e-19  -1.0686422086094226e-09  2.6334810786325473e-13  9.1598250010145755e-12  2.4678708297001056e-11  1.3806046276944445e-11  5.9170058583053189e-08  -5.8481398292897925e-21  -1.3846346291901138e-19  1.7833360466552687e-17  6.1911465890089884e-18  -4.4691292419951480e-16  2.8795026348203323e-13  -2.7646342886773197e-09  -4.1674712437980253e-12  -4.4713692975820983e-18  1.3518276967693146e-08  -1.0654094415419769e-10  -1.7496739978647205e-10  -7.3360537928740584e-06  6.7697390995307349e-11  1.0052172884608156e-17  -5.4564124428928060e-16  -1.0633025378308046e-16  2.4839619003878941e-13  2.3104387220937570e-14  8.8428446305052791e-16  4.3786048010009965e-18  2.1577541481548015e-14  1.8490953890455608e-12  1.4118168007027462e-13  -9.9922651936786836e-17  2.4354664506285029e+00  6.7463160680022042e-03  1.2219837855150901e-09  8.9384482029867050e-20  -4.9311216282639444e-17  4.5791987407560518e-16  8.4390923484456152e-17  -2.1222548636717767e-20  -8.1792132956177090e-17  -2.2905020450444170e-21  5.7926126457113246e-03  6.8682114511394755e-03  1.4930343246424834e-14  5.2053697601916022e-13  1.0135821369588330e-11  -8.8261275302288376e-17  -1.5835735208338570e-18  -4.3823483499601671e-13  3.1240461226808547e-07  1.2637821496351801e-09  -2.6476797042936669e-06  6.4008963120230349e-11  4.2394574050335198e-06  1.2027484730114430e-03  1.3769225030039337e-02  4.2327782485615207e-12  1.4526667437339965e-13  -7.1281945228371354e-14  1.1624279827314513e-13  -3.3114428375162654e-16  -1.6509822378985782e-17  6.6443018086077540e-13  9.2512199529209753e-18  -7.1760295780089094e-19  7.1940568279015496e-13  3.3141351461677073e-16  1.3967293123793062e-16  -7.6206700268766241e-21  1.2152110541125175e-19  1.6681005403186687e-11  -5.5163715976719072e-18  -3.3663541530562866e-12  1.2280907409612197e-13  -1.4608785748903397e-13  -1.6325453594584056e-16  -3.9506451267242354e-08  -6.1434872689124929e-13  2.3338387580997571e-11  1.1333844019889815e-12  -2.5333219922644896e-18  1.2468725136393831e-18  -1.2266285599425914e-18  -2.4323328484366667e-20  -3.2887867606067284e-18  3.6922497988990821e-20  3.9164837201648220e-11  1.7368522936386343e-09  2.2097930906177960e-14  -2.2556611275969266e-14  1.3840900857881988e-08  1.5082458829297601e-07  5.1313348258365963e-12  -5.6405873068239981e-13  -1.1119011269009932e-10  5.8189677734956593e-10  9.1415225982518542e-12  -5.0585076737961587e-16  -4.0717693194683635e-17  1.4138957595218569e-14  -3.2195594310159341e-14  2.1377749177072735e-15  1.6255222377981398e-16  -2.6390117403396724e-05  1.3958874838541936e-10  -2.9683693297034029e-16  3.8351030341102173e-06  2.3389402104282518e-13  2.0340586240675182e-11  2.9757063316599103e-14  3.0128066409616020e-10  2.1654571710908819e-03  1.0214389941597922e-21  -7.1915292247629964e-22  4.0378530377033377e-06  1.8854332229954245e-20  1.5230243946946965e-16  -1.4024144631990626e-04  -2.2269294090106084e-02  9.5962459565940104e-03  -1.0688506147332018e-18  -1.0397655121996844e-15  -5.2866929901592471e-03  6.8233399674361055e-09  6.7624135307391083e-18  6.5870935502824364e-03  -3.5683308575447531e-17  -3.3456636166838583e-21  -1.0806939472941239e-13  2.7579266425178178e-19  -1.4763442750801627e-16  7.9130076591328812e-12  -5.6115745471099895e-17  3.9202755379481635e-11  -1.7432035284284671e-17  7.2299915162038578e-05  2.5550186395672702e-10  2.6321511873104404e-02  1.5789800452553832e-08  2.3101726930652308e-16  -4.4949151729119889e-05  6.8539393326598947e-14  -5.0429353919827027e-11  1.6194453465183259e-18  7.3551451435162399e-12  -8.4161036145975557e-18  -1.1537447720758578e-18  -1.1157501900358750e-10  3.2415921786984144e-12  -3.2734902079162536e-17  7.2596979210228108e-09  9.1458302006273361e-07  -3.3956181360975748e-08  -2.3752801730179879e-06  2.3512435428013057e-16  8.1207902288781973e-14  1.8543797713320999e-10  7.0883428765411880e-13  1.9580888607360479e-04  1.0820302397863365e-14  -2.1799953418330378e-15  2.6059843188128601e-16  9.3768804170697053e-15  1.0781383108916513e-13  -9.7988217888083461e-16  4.8712140258856315e-17  3.5191034981489704e+00  -1.2491234979454600e-04  -3.4797057560339644e-06  -3.2638377169425795e-06  1.7459097640760120e-06  1.6200865054717842e-06  -9.1949755374260394e-08  3.5969243061070630e-11  -1.3784570148854688e-12  -1.9714368121945110e-06  2.5871862153211433e-19  6.9908798950213267e-13  -1.3612317019879227e-15  -4.6295551499117725e-09  5.9855015014921641e-09  2.0907850572856806e-08  1.1593076054978673e-06  -2.2662786662171039e-17  1.3504436799509803e-17  -7.2102967131781855e-11  -1.1740338000354486e-12  3.3539738265459051e-12  1.5735553144065314e-17  4.4853169066473601e-16  -4.5180063976833954e-09  1.1298913242120746e-07  2.8328004748455256e-17  -1.0452559524188894e-17  1.5961612579166330e-15  -4.7420575218871704e-11  5.6317021830921180e-11  2.9250591921497513e-10  1.4494744389227715e-10  1.5796213331075639e-08  3.3494458783243293e-11  7.0578987638562365e-06  -4.8915342848507634e-21  -2.3975353822607559e-19  6.4075861846683647e-18  2.7292969150396807e-12  2.0953338271844582e-13  5.1356890404355799e-19  1.9726039863300865e-19  1.6144279170976912e-20  -1.4277635977404183e-18  3.4919326523684257e-10  4.6221609404413742e-12  -5.5037607748249198e-13  1.5146310736125376e-07  6.6984369263850086e-09  -2.1839094100831650e-09  -4.0003035434218723e-16  -1.4034331552533428e-09  3.4583711938316318e-14  -7.7049977782657372e-08  -7.1806316744307004e-19  1.1209913224627585e-15  -4.9075228175799302e-15  1.5617878257647908e-13  7.3741184974492042e-14  6.4269801297302936e-14  4.0132671201018559e-14  6.4357482410860017e-12  -5.4900801841342218e-13  9.3306391830354310e-12  1.7855090313820583e-10  1.0415691542944428e-21  -3.4541786378597463e-23  5.8802110630216435e-16  -3.7145645362106988e-16  7.4130948440710229e-20  -6.9165705081715150e-17  -7.1291407853438854e-19  1.7683813809582410e-17  -7.1769726965898086e-16  -3.6706807071044938e-16  -1.9926223909315669e-16  3.8660266988563181e-17  -4.5598307674652312e-18  -1.9922760270441369e-21  -4.6892309883323242e-18  -2.7974993054126899e-20  -1.2127878217075195e-20  3.6744637995792026e-18  4.2781068303424938e-03  2.4357698793558759e-07  1.8945025359535469e-08  -1.5375387905282893e-10  -1.7173247434723736e-18  -6.2916741910989846e-17  2.0796825370600385e-16  2.0103137965825906e-20  3.9801404259219350e-06  7.6928224997260875e-12  1.5850274430796355e-17  1.6906253994448211e-06  1.9747307923212866e-19  6.6082269086355769e-09  4.4473340862308511e-13  4.4249131557289660e-07  2.6869901623978354e-17  2.203