<?xml version="1.0"?>
<VTKFile type="UnstructuredGrid"  version="0.1"  >
<UnstructuredGrid>
<Piece  NumberOfPoints="3002" NumberOfCells="5870">
<Points>
<DataArray  type="Float64"  NumberOfComponents="3"  format="ascii">323455.6100285493 6048753.88242996 0  323455.6100285493 5954782.59950515 0  405920.1480513444 5954782.59950515 0  405920.1480513444 6048753.88242996 0  405920.1480513444 6001768.240967555 0  323455.6100285493 6001768.240967555 0  364687.8790399469 5954782.59950515 0  364687.8790399469 6048753.88242996 0  364687.8790399469 5996367.117560402 0  323455.6100285493 6025261.061698757 0  382226.6271443229 6022560.499995181 0  405920.1480513444 5978275.420236353 0  323455.6100285493 5978275.420236353 0  353897.8957397301 6022560.499995181 0  344071.7445342481 5954782.59950515 0  385304.0135456456 5954782.59950515 0  405920.1480513444 6025261.061698757 0  354379.8117870975 5975574.858532775 0  381582.8168806895 5978840.396198289 0  384950.2598624413 6001768.240967555 0  344643.0480768835 6003429.02033719 0  344071.7445342481 6048753.88242996 0  385304.0135456456 6048753.88242996 0  339717.0321562298 5986078.187627405 0  337515.036058786 5969821.016310448 0  368062.2614420265 6013076.224998265 0  368062.2614420265 6032044.774992097 0  393987.6142659165 5988729.699941677 0  405920.1480513444 6013514.651333156 0  392856.2821527076 6034589.119828064 0  393514.9611654527 5968369.338068204 0  339399.8087404341 6032061.482581838 0  323455.6100285493 6013514.651333156 0  374995.9462927963 5965504.865595459 0  354379.8117870975 6037976.901948514 0  338123.9088969378 6017031.529131207 0  367397.3120126425 5982072.559192053 0  351882.5752379905 5991998.990225234 0  376945.425450199 5991232.708824487 0  392265.0061656896 6013300.936254065 0  357029.7426706699 6006608.947964352 0  380093.6207558212 6036880.127749795 0  323455.6100285493 5966529.009870751 0  405920.1480513444 6037007.472064359 0  405920.1480513444 5966529.009870751 0  323455.6100285493 6037007.472064359 0  333763.6772813987 6048753.88242996 0  405920.1480513444 5990021.830601954 0  323455.6100285493 5990021.830601954 0  362879.3643765316 5966837.319094267 0  348367.6438548031 5965604.161682394 0  334493.1989038612 5996935.948935225 0  395068.5043068817 6023875.372615605 0  348216.0324377587 6013504.844950221 0  379305.9090074943 6011603.390019651 0  372523.5158233726 6003480.000732267 0  395435.2039568929 5999384.346358113 0  395612.080798495 5954782.59950515 0  333763.6772813987 5954782.59950515 0  395612.080798495 6048753.88242996 0  374995.9462927963 6048753.88242996 0  374995.9462927963 5954782.59950515 0  354379.8117870975 6048753.88242996 0  354379.8117870975 5954782.59950515 0  335074.5981535012 6007206.680367459 0  391925.2695590468 5978591.908877409 0  371969.1707190623 6022560.499995181 0  383872.162544519 5969415.106147043 0  358038.7139835292 5984533.09712744 0  369699.869182786 5973102.2359358 0  369841.9126663716 6041099.453006387 0  343176.7440329155 5994428.220622956 0  362933.5332293962 6024385.235173292 0  330640.1760208776 5984148.625419154 0  348684.7494355051 5983110.856817525 0  399094.9690929834 6007537.420809742 0  345447.6324516311 5974162.84917082 0  332859.7749513451 6039150.972778062 0  344517.044630671 6024057.945416138 0  332973.1214415312 6025037.914505113 0  341428.0126373461 6040493.820728126 0  385874.264691618 5992757.40885039 0  350337.3662538711 6030387.535304286 0  359887.2373602368 6016186.250094838 0  377097.8989316926 6029115.217702097 0  338917.7109078235 5961484.016839475 0  329495.5261590715 5972402.215053552 0  336644.7280634616 5978216.610794215 0  330688.6715098422 5962480.256438018 0  359899.8039476132 6031963.415584587 0  399746.255941904 6030426.523907755 0  385511.6875144855 6030368.508996127 0  387377.735783329 6040763.821024337 0  398832.192399829 5974431.100387635 0  387992.9498994246 5962432.032572681 0  405920.1480513444 5984148.625419153 0  364925.7641745284 6005782.953640081 0  361769.877068089 6041226.651684469 0  398452.9199001931 6040850.732439541 0  398946.6205243983 5962252.502309519 0  362305.5577564609 5975984.89789681 0  356822.8065216601 5998470.186307689 0  386900.7115926162 5984820.732438302 0  329528.0119279922 6032067.230024892 0  331139.6939744562 6013813.572928222 0  398457.5876798834 5982541.698799337 0  405920.1480513444 6019387.856515957 0  398685.5166750694 6017257.578706384 0  348587.9424884976 6042755.309150081 0  369841.9126663716 5960143.732550304 0  380149.979919221 5960143.732550304 0  359533.8454135222 5960172.384722514 0  377147.8814772839 5972649.581024994 0  341756.3455763521 6010124.092444684 0  355615.8176864882 5966311.193813809 0  369144.4338274571 5989807.770003954 0  375185.9047422862 5983510.422041401 0  323455.6100285493 6007641.446150355 0  391856.7960121195 6005888.565703365 0  371978.0245217044 5996361.134308098 0  405920.1480513444 5995895.035784755 0  378877.1880032702 5998073.745937059 0  359056.6617417652 5991643.489540118 0  399278.8743430426 5993436.466134224 0  386116.8775939071 6009922.097099247 0  323455.6100285493 6019387.856515957 0  388994.7833819839 6019826.789191471 0  348897.6207366391 5998116.079250046 0  345456.3301153719 6035064.814295612 0  323455.6100285493 6042880.677247159 0  334124.3013408988 5990072.953472659 0  377097.8989316926 6018059.782440464 0  323455.6100285493 5995895.035784755 0  342871.8474798963 5980154.238874755 0  373596.9793292385 6035659.183886081 0  380149.979919221 6048753.88242996 0  376327.9292813152 6042294.581731233 0  329163.3548105369 6004704.843558955 0  350303.9432136903 6007093.032074522 0  383982.6552804571 6015912.664375832 0  345515.490569988 5988567.439252969 0  379019.812877927 6004678.052169549 0  365541.9137639466 6018750.691894444 0  349225.7781606728 5954782.59950515 0  352493.3399767278 5960815.406895458 0  363683.8130458911 5986976.225872464 0  386666.791301207 5975084.583584332 0  368937.6553346639 5966171.092344863 0  400003.9882214358 5968352.273777306 0  328776.0063842635 5992958.433193355 0  339958.4428758043 5999572.344589042 0  354577.7732363954 6012555.454074449 0  328609.6436549741 6048753.88242996 0  382053.0280278458 5988228.496807038 0  330708.6817934912 5978212.973348036 0  372084.7734679543 5978495.086505585 0  358568.2738174705 5971419.415228934 0  328931.2672829705 5998832.905089681 0  323455.6100285493 6031134.266881558 0  405920.1480513444 5972402.215053552 0  405920.1480513444 6031134.266881558 0  323455.6100285493 5972402.215053552 0  405920.1480513444 5960655.804687951 0  323455.6100285493 5960655.804687951 0  405920.1480513444 6007641.446150355 0  323455.6100285493 5984148.625419153 0  405920.1480513444 6042880.677247159 0  346648.7613474604 5960023.05127712 0  342415.3891593561 5966358.988213831 0  350507.6510228226 5971111.740321856 0  391773.9667214506 5994456.117700323 0  338875.8905424621 6026088.827345025 0  361429.1735454847 6010511.262533597 0  389395.7028803263 6025805.543023561 0  392895.6464692951 6043315.288173481 0  332846.8296575367 6019296.633131165 0  373337.4404588729 6009693.515402478 0  336544.3064612215 6043648.151399015 0  348610.2411382072 6019567.839754772 0  381943.4597763228 6042183.394750732 0  355630.0631288611 6028071.82801846 0  363941.5238882306 6035967.852698964 0  328179.67203552 6022271.326978176 0  401066.2857736665 5998807.415073814 0  344387.1099621175 6029612.545574771 0  393435.2235156003 5960233.556458537 0  400735.9970493424 6022675.638064924 0  393708.5772019727 6029179.837160029 0  400609.0696943338 5987857.851798974 0  361753.6614662939 6001152.171757337 0  400766.1144249197 6048753.88242996 0  353363.0524357285 6002630.165620538 0  343248.328463803 6018790.640008039 0  356419.8105951758 6043365.392189237 0  390234.385899412 6000759.497967276 0  368336.1168551637 6000220.532318851 0  328609.6436549741 5954782.59950515 0  387520.8298169724 6035372.992507171 0  400588.0280660195 6035823.299583429 0  329021.6598427091 6043194.252697862 0  393371.710206733 5983576.325812268 0  393638.9721728675 5973623.513063556 0  371727.9212466564 6017113.044457142 0  364687.2762977295 5959941.212693035 0  374995.9462927962 5960346.83186599 0  369841.9126663716 5954782.59950515 0  400766.1144249197 5954782.59950515 0  338917.7109078234 5954782.59950515 0  369841.9126663716 6048753.88242996 0  359533.8454135222 5954782.59950515 0  390458.0471720704 6048753.88242996 0  338917.7109078234 6048753.88242996 0  390458.0471720704 5954782.59950515 0  359533.8454135222 6048753.88242996 0  380149.979919221 5954782.59950515 0  349225.7781606728 6048753.88242996 0  339867.4956514095 6005339.817053361 0  333737.9460226952 6002130.523287664 0  336955.8140048417 6012008.440073739 0  377097.8989316926 6023232.32559834 0  371748.9790486701 6028016.629988787 0  338146.5171983215 5993298.164761053 0  355016.8390227688 6017610.913088997 0  393953.1528190996 6018968.416019509 0  335185.8133477239 5965142.63403323 0  328616.6041642396 5967263.80307608 0  380314.9487662361 5965460.362415641 0  354622.8993466098 6032976.142863722 0  328521.4725131759 6027215.026914048 0  334465.0783479523 6034070.534389696 0  328123.6212682287 6009699.206425843 0  381889.5169855529 5973936.741901617 0  359122.3484437474 6036790.002992895 0  386341.6533148278 5979963.279841923 0  400798.2159679119 6012477.871311778 0  388538.3765260249 5967461.292146791 0  340833.8784183678 5975728.708105717 0  355307.6239213505 5988552.151815021 0  362181.4274823388 5981261.937800813 0  353784.0322742948 5981044.538811012 0  358045.1698423899 5978741.391518688 0  328423.7350325213 6036912.015930048 0  366897.6876966125 6027277.723668203 0  347355.1745641421 5978532.307510624 0  376820.5060332146 5979033.270735624 0  349378.1778589479 6024378.632814493 0  327189.2282939323 6016451.253924556 0  338433.8773236172 6036753.902881841 0  350141.9760340559 5987605.90026687 0  363794.7083927878 5991713.491814731 0  350325.1285660182 6035273.515460094 0  382355.9358007369 5983507.499638396 0  327107.0747437811 59811
[...]
<PointData  Scalars="f_58-1"> 
<DataArray  type="Float64"  Name="f_58-1"  format="ascii">1.1131700873849774e-24  4.9307272801998126e-23  -1.9599044035807313e-18  -1.5281914652314961e-21  1.5062788198408301e-12  -2.2253287555125290e-17  -1.1848332856916049e-16  3.6852670406247326e-18  -4.0746675903684305e-05  -9.4879934628020028e-19  -1.1999836065975920e-11  1.6566548778926213e-13  -7.8511247862157107e-19  2.7897963531143555e-10  1.2677074537073223e-19  4.7150038096248891e-17  -3.2017167311446090e-16  -5.8154750832282642e-13  6.2583555190035746e-08  1.8310115990408457e-08  -2.5043764268910559e-10  -2.6209902288099659e-19  9.4050167661880624e-19  2.6989593974540118e-13  4.2820074204706059e-18  5.1976454419368040e-06  3.0462794138263719e-12  7.6616904896101489e-10  1.7480087513377641e-14  -2.9248138208928817e-16  2.0637614910807415e-13  -7.6403604608694298e-18  -1.6044993131213252e-17  3.1688453070304107e-12  4.4495802293587402e-14  -2.0656734785111170e-14  2.4638597524759931e-07  1.5461225609985527e-08  3.8344036042462573e-03  3.4272826995761092e-11  7.4169053265175288e-07  -2.0695673796163712e-14  4.6412375635914266e-21  -1.5200875629210018e-19  8.4690479539156438e-15  -2.5263234048305917e-20  1.8469552480947390e-21  1.6335108318899404e-12  1.5237899070110343e-17  4.8789413336901460e-12  -8.5905677898655544e-17  -7.3837691922966297e-14  -1.0319213676520797e-14  2.9327170874114749e-11  -1.8607512789513081e-08  9.4774294407862873e-06  6.6634447206757088e-09  -2.9542716259774648e-18  -7.5479353344341922e-21  7.1709173138875706e-20  2.7131547057495706e-18  9.1226112121346525e-18  -1.8375945535234359e-20  -1.4721012704264304e-17  3.8083066289767383e-13  -3.5646678461557862e-10  -1.9535428152120437e-10  3.5586932900910717e-12  1.5495378971943830e-10  1.4819583162991951e-09  8.1259730967881122e-18  3.0550120229457100e-10  8.0829697617963158e-10  -1.4788318237427827e-16  3.0488972187835499e-11  2.5664194689799160e-11  1.2657307876752978e-13  -1.3065672171915370e-20  1.6814102907868880e-13  2.8631117703829499e-16  -8.4869510158429879e-19  1.6760152143428786e-04  1.0218388675375331e-12  7.3577062658036760e-08  1.6874683639360170e-12  2.7478958308167204e-19  4.8878628911552250e-19  -1.3860193670783202e-15  -1.9687861167763620e-21  9.4057318499343446e-13  -3.1676180620904870e-17  -2.0545624748672162e-13  -2.9747881371675036e-17  -2.2239943732406844e-13  3.0622718115315917e-14  7.7420231279847921e-13  1.1306670270931941e-03  5.8079092648618017e-16  -1.4316526223659704e-18  -3.8634604180636504e-16  1.2998477156530985e-09  4.4770416606871280e-06  -1.4100726696931356e-07  9.0549550379395237e-19  -7.8568795196241785e-16  1.6192857150074729e-10  1.1165202082236211e-14  6.9741499538608167e-13  -2.3416772538949766e-17  -1.5075721034610510e-14  2.2142913840569819e-14  -6.3095181495043212e-16  1.1580102757926474e-09  -6.6988239502258896e-12  1.4668020257148377e-13  8.9027461416765121e-05  1.0157759078713421e-05  3.8653059453013648e-17  -1.0558226106982809e-09  -4.4337303080488792e-03  2.7797088324853115e-12  1.4311815380652963e-04  1.1782091163936099e-06  5.1687350628171833e-11  3.6986563315726960e-08  1.7536187076389884e-18  -5.6058047857553625e-13  -7.2879726803707675e-09  1.2514798906845107e-17  -7.6745413164257880e-22  -4.3560908591024423e-14  2.3680565149425750e-08  -3.0591967966010574e-17  -3.3935611915071405e-14  -4.2513410025017461e-15  -8.1437811716139318e-18  1.9316538414401276e-16  -1.3207990703234462e-15  1.1796538962290479e-08  6.4005438047997832e-10  -1.7844950358406636e-11  -1.4011900731382995e-07  4.5459667897739352e-08  1.5692190465339920e-18  -3.1588450868960185e-17  -6.4178672282734255e-07  1.9942854474207850e-09  3.3640638139286074e-12  2.0824915429978275e-14  7.2131483286858628e-16  -1.8449086145238663e-11  -7.9970482381381474e-09  4.8338017459255295e-23  1.4458425311221162e-04  1.5025219898229867e-17  -2.6947752327684282e-08  -2.3763291360336561e-12  -1.4117359905213548e-16  -5.8491705549314820e-21  8.8238561390813896e-14  -1.6479693308392616e-17  -7.3494263840086662e-20  -1.9450273831960119e-17  -2.6326086750831809e-22  -1.8344264838227437e-13  -1.0580480797872230e-17  -2.6700798171032728e-21  -3.4646698636023458e-18  7.6803376006441495e-17  -2.9933554722138756e-14  -3.5543119486900086e-08  8.3010325223491111e-16  8.7803641569360295e-07  9.3851828428924485e-14  -2.4357289453179206e-18  1.2043989880881642e-17  7.4542321926481094e-06  1.0399530555606957e-20  3.9138263225764879e-11  3.4710417433994985e-17  1.3458344316422469e-11  4.1328732283688879e-15  1.2041210095328434e-17  3.1137926560701238e-11  -3.0353455490134379e-15  -7.8534609653060743e-16  -1.1280348122228190e-15  5.0204809358036078e-16  9.4744556560224685e-11  -7.5936752144081731e-05  -4.5824555391698148e-21  -1.8717256634859881e-07  -9.9709263778163708e-13  -7.5343256986172316e-18  2.8550135696077095e-07  4.1868270512291764e-02  8.2082845450008115e-22  -1.7363264075555019e-15  1.8401317737107401e-18  -5.4047651184271356e-22  1.2627660356029105e-08  2.0509767104729541e-11  1.1688968566195694e-08  -1.6212422803815206e-15  -2.4420677249065061e-15  4.9084022582557921e-17  -3.5190039962092513e-18  -8.2152069356938948e-20  -3.4148226977996980e-20  2.0701157968705885e-18  2.8623872859691195e-20  2.0557706466932383e-20  6.4958459272241308e-17  1.2288217830495396e-18  -1.9982077480296236e-16  -1.0422274037430178e-18  -1.1441116757104720e-11  -1.2044224235065519e-13  6.5978772061873111e-13  -1.5001742803860455e-10  4.1467653699240202e-12  -1.8364095830525782e-12  3.5230172045373024e-09  1.5703346316613528e-12  1.0672143564215388e-18  -7.9267709554922683e-20  2.1514781452154760e-12  8.2284890420123836e-13  2.6255266546225778e-18  2.6737726531024761e-18  7.9347872682094346e-16  4.5079466946269272e-11  1.2521609696083797e-14  -5.9332347256096487e-09  2.6071064636851896e-12  1.5029311328027458e-12  -3.9512676812436518e-16  2.2786381932100538e-08  1.0994894188050929e-08  4.9002805504788496e-11  6.6089262604466158e-10  2.0460098070392705e-20  9.4176859513669423e-11  1.4237401980839079e-12  1.1877059393456882e-07  3.5467152513622745e-12  3.3062962790849076e-17  -1.4503213341154664e-19  7.8069311971612315e-10  2.6792408564968171e-06  1.5280340664364212e-15  3.5226175723475657e-06  -7.2859916190134124e-18  1.7705213724558147e-14  3.6750397854576650e-16  -2.4902388962806648e-05  9.4761455931009238e-11  6.5554555173620424e-11  9.1111648763266543e-09  1.7563606004982949e-17  1.8417029127721739e-17  1.7225361020740773e-13  -2.2398911529513801e-18  -3.3068145701212242e-17  9.6678955041104092e-10  4.3564917825793963e-07  1.4577444499745079e-17  -3.2373501843488296e-06  2.6466042428168925e-14  -5.2810896170014771e-10  -5.8920208082218015e-08  4.7451728336561100e-03  -1.2225022066418678e-10  1.3511922649768489e-15  6.5994900381882661e-10  2.6081100431249802e-11  5.0101394164679211e-11  -1.3373131400630484e-11  3.9530421078315642e-07  -8.1126563372218026e-13  -7.0846062416685176e-12  1.2483471923261698e-11  -6.7924438076543850e-09  2.0690851314452409e-06  -4.8863298062127976e-06  -9.6891968691416522e-18  1.9249007840196041e-11  4.7324641302775614e-20  9.6282628066546766e-16  4.6264960513245622e-10  7.5865985464542990e-13  7.9758723385312730e-12  1.7967835991538242e-19  -3.5202152673233522e-12  -2.8444870960286991e-13  5.8628997913883575e-05  -3.0271456436672734e-15  -3.3538588525414809e-20  -1.3965907459035646e-18  7.1255367880242627e-09  -1.0100661072743274e-15  -9.8408071817782869e-15  1.7085672096794783e-19  2.8191078815097705e-12  -5.5705119531196241e-20  -1.3054639007667095e-19  -5.8323350837670430e-21  5.1786537330236697e-05  1.7713999689670598e-18  -4.2339107407668535e-06  -2.6384061593137649e-17  9.5334450939997435e-21  1.4290919087121701e-16  1.9443846334549859e-13  1.1571085494162664e-13  -5.4446094788280225e-16  2.6034174898728127e-10  2.2999564799875864e-14  2.6320500058375964e-16  -1.9821859933149025e-16  9.1588994024813483e-14  1.9473219881271785e-07  4.2205312702435345e-06  -3.7940889428748950e-06  -3.3002331478924143e-17  1.6036900794349359e-11  1.5857231752050674e-15  5.4580147424067213e-22  -6.1351630752492193e-20  -2.8798721349874019e-13  1.2680738039880470e-12  2.3425906413692179e-13  6.7837915777267997e-13  -1.5366161747277966e-16  -4.0752481863098784e-16  6.9448507751583665e-17  2.5068285041160981e-06  3.6863737817123917e-12  1.1168993676185704e-14  -3.4858774172346658e-10  6.7993438805784620e-05  -1.0724774928523819e-05  -4.3509063857922381e-05  9.6818258201529451e-04  4.4507719739039825e-17  -6.1751209676149356e-09  -1.4513508711029849e-12  8.3637063814816047e-14  -2.3886465005627283e-13  3.6049615506615230e-11  -2.5467345477647272e-23  5.6510904485407994e-21  2.1825736364934717e-08  7.0113646850542566e-15  -1.9567205230802580e-14  1.2115091189991469e-07  -5.4201766920461680e-16  1.4931514996304854e-09  -3.0107311793136152e-17  7.5384733777170910e-10  1.1968087949519267e-10  -8.8045841275091520e-18  4.1174502275541465e-20  5.9759837901086920e-06  4.9160782592941535e-09  1.4232200950357713e-14  9.8820724962502590e-15  -3.8975025271503033e-15  1.2131563377480062e-21  -1.7400629830172700e-18  -3.6299571487223536e-17  9.8680102997286783e-06  1.6256558842792788e-11  -1.3888038045158991e-16  -2.2934856241953979e-15  1.2148436155638437e-13  -1.2562981465324210e-13  -1.1090380533958045e-15  7.1176865637685837e-16  -1.4355237452910690e-10  1.1949494614712347e-08  1.3414124943063237e-12  -3.0288946857703061e-18  2.6030473191465056e-14  6.0821255039892333e-11  -9.6901200436846379e-18  -5.1540099230647928e-16  -1.0754865485273142e-06  1.0599331575726057e-10  -2.2399170747906111e-13  -1.3832196752920898e-15  2.6671012763632091e-16  -4.8213383282325881e-21  -4.5971501988162946e-15  -3.8718934936442966e-07  9.2397049547218873e-12  3.9631593005863642e-14  2.1360869174466920e-11  5.7336856891266387e-13  -3.7705439506979414e-14  -1.4825464420467018e-11  1.2278109717103250e-11  -3.5356621186157963e-18  -2.4457559765982306e-14  8.2437404965271261e-09  1.2214284457926746e-09  4.9941109419347487e-10  1.0667071033091794e-08  4.4571752902874505e-08  -3.6407480491399612e-11  1.4972073343116694e-10  1.7856568508549731e-15  2.6479324023483203e-16  -1.3110333424725718e-07  1.8819675021441843e-20  1.6706369449212189e-05  8.5512379958415083e-02  1.9049088783368409e-19  -2.2794151590692186e-17  -6.3138308624747002e-09  -1.2001460427520056e-12  -2.2731549428584645e-07  1.7915749510798529e-16  -5.2545317765289288e-18  2.1513373081018184e-18  -7.6450818516322982e-19  -3.1805793629540994e-17  3.4601782262000570e-11  1.5543256623065321e-10  3.0014181375331253e-13  5.3224574874081214e-13  -8.8920735036092070e-18  -9.3379767989945453e-09  1.5323877352244895e-07  -2.3832667761332653e-07  2.8091178748896425e-11  -5.3005685034276491e-15  7.8921169577684041e-12  8.3152937184271038e-08  7.4864442529708739e-09  1.0303883572342147e-07  2.0319680010201363e-11  -5.1640469640503508e-13  2.2886071367480788e-03  -3.5311275741538511e-19  -1.6782339982998994e-12  2.2973055580552664e-12  1.4946773260368587e-09  -1.2985358953698207e-15  -7.6380273406394033e-14  1.4299211333793815e-18  -1.2483202451674421e-03  4.5646895836253313e-09  1.2932209608362009e-14  -1.7546742660513116e-09  4.4574251964521124e-13  9.0855453302890579e-18  5.8806288661433597e-12  6.4836812666359337e-14  2.8761924529773472e-07  -2.7935713699001635e-16  -2.3548645284435066e-16  5.3116494533858347e-14  -4.3341206170520494e-13  6.7876309305134049e-20  1.3852862151354454e-13  -1.8934934821540882e-18  2.4415436272989151e-10  3.1169531504748086e-11  1.5260137095784100e-08  -1.0777963623603605e-15  2.1500736872814142e-10  -4.0307114753747111e-12  1.2474800209702876e-19  1.7966727231047779e-03  2.5416103068490323e-17  -1.8706013929437492e-12  -1.1626383891611498e-13  -7.3954913507900544e-10  2.0655633955159699e-08  1.6671653544646037e-17  1.3969502484728790e-11  4.6746815018698847e-05  1.8352464487935321e-15  -3.0430571490811757e-12  -4.5154772689534786e-14  4.7588835938372101e-14  3.8550543210267069e-17  5.0744226741425673e-14  9.2025676539941186e-10  -2.7031547822138698e-03  1.4942347398578970e-12  -9.7154497631359670e-13  1.5325285137119985e-21  1.7805537343845463e-12  2.4758480263433375e-10  -4.4161121997426515e-09  8.4463374626122522e-17  4.4796696396811864e-17  -3.7598668720734693e-17  1.6533832461760986e-09  3.5812862466375086e-19  2.2124621680823900e-19  -1.8760402286529838e-19  1.2314176829919500e-18  1.5298702772275611e-09  7.9648855605962306e-08  1.8280652721543862e-09  6.9787937553358401e-17  3.1616565308281001e-09  6.0394312422867565e-14  -2.0739529130149971e-10  7.5823508832708789e-16  -1.6050836537415171e-07  -2.1938631053345021e-09  8.9098117224927314e-11  1.5122638765085576e-12  -7.2974194125973515e-12  -2.9440405010323762e-11  -1.5314397066696489e-04  -8.1920880498515839e-07  -7.9109060063754352e-07  2.1160403532110570e-09  1.4740052607989286e-16  -1.1324859193668083e-05  5.8995096658344422e-19  3.7080836293300730e-17  -3.1614911979658337e-16  1.7782662748001285e-17  -7.2950606971408623e-17  -5.8255174289282655e-16  -5.0481410378776050e-21  -3.4183240121144723e-09  3.3849073979852761e-17  6.4006653052045527e-20  1.0257545734331323e-17  9.5268993633031740e-16  2.6147666951796835e-15  8.7373596731622652e-11  2.0584194548881916e-22  -3.1377635852413045e-22  -1.1468155550761099e-17  -1.5233081800043523e-23  -4.6112635427200031e-08  -4.8318284469364489e-08  -1.0159558916631296e-07  5.4323446173818679e-06  4.5914600076221605e-16  -5.7063784586620666e-08  3.9651233464795220e-20  -6.4097396174504283e-10  2.2073470480330079e-13  4.2484363411037520e-12  -1.0817394327091957e-12  1.1053032566726588e-12  4.3352536668059768e-09  -5.5484343522409513e-20  -1.2040152926112886e-19  1.1459266514944243e-17  1.0132929849716715e-18  -7.3476886297935682e-17  4.2987220876684787e-14  1.4773064377949958e-09  -1.8329779496678524e-12  3.7067124446512268e-18  4.6368197821098465e-10  -1.5907104569602727e-11  -1.1830684933620823e-11  -2.1423006824018220e-08  4.2417173536937604e-12  4.0768097861359647e-18  2.0094256436106722e-17  2.0884556845546598e-17  -2.7517897735733909e-15  4.5089819491246411e-15  -2.0559725196773857e-16  -8.6977285028219545e-18  -1.0282118748397800e-15  6.1152111411415513e-14  2.8628323400745428e-14  2.1441156426803436e-17  -2.9618418207412933e-03  2.1704370787922335e-04  -7.0838142629996611e-11  2.1789315387784189e-19  -9.7659539600899256e-18  1.8411982761755433e-16  -4.8737673020052987e-17  -5.6876479396295440e-21  5.5366875353293805e-17  4.2287482937831853e-21  1.9968461713842017e-04  1.8751298079372997e-05  -2.6884481354213114e-15  7.4726199230987533e-14  1.3419058838454045e-12  1.1731736250848251e-17  1.7403319993168454e-18  1.5693293922977438e-13  -2.0309707343839744e-08  -1.4011755322471394e-09  -2.6479289984269975e-07  3.1264830493447202e-12  1.6909813240099985e-07  -5.0267837047665285e-06  -2.2358364788997679e-05  -1.2193960740449499e-13  -1.4188350101279914e-14  2.1416274891678569e-14  -2.2472919155997091e-16  -1.5926531245515395e-16  1.0557217296436940e-20  2.3830101861879434e-14  4.8253504138298044e-18  1.9469774943188926e-19  -1.2846524060694931e-14  5.3956725508262549e-17  1.6477776352788881e-16  -2.8445648519856339e-22  -1.6139053043104799e-20  9.4606644960090393e-13  1.5180785468140893e-18  -2.2272455183523813e-13  1.1796644565317860e-15  1.1422342219568922e-14  -1.0806664943580718e-16  -5.8590581308989629e-09  -2.5669316954939631e-12  1.1293874393161596e-11  3.8416612504787035e-13  -8.3828921562937364e-19  1.4116760269727887e-20  1.5216078519117115e-18  -5.9083773540830675e-21  2.5836736405329394e-19  2.1058235546570261e-21  8.7907364030765657e-13  -4.0661027794859968e-11  6.6261738130213876e-16  -4.9996445951880622e-16  1.0719180597315545e-09  6.4274458290951666e-09  -4.0733099663096653e-13  -4.4629345468324599e-13  -1.9478519226635240e-11  2.2530085458433272e-11  8.1333437612703493e-13  2.0026838793102233e-17  1.0626617277833825e-18  8.2113793061010053e-16  1.2707450558843816e-14  -5.0431691378235211e-16  5.3589920954017164e-17  -2.4042527036750193e-06  6.6050206327598322e-12  -1.5965387797091398e-16  4.8839016774107174e-07  -3.8771436788864170e-15  9.2100470096716851e-13  -2.7434383162450613e-15  1.9138181440880699e-11  -8.1095212932786294e-05  -3.0178164608089171e-22  1.0586471673402527e-22  4.1211493678408519e-08  8.4708758471575263e-21  4.0573830976837467e-17  -7.9100390120345820e-06  1.2204324955969869e-03  1.0604150270573837e-04  -9.9966035067418097e-19  1.4980691207046292e-16  -1.8595865291294014e-04  3.9795526124104887e-10  1.0686275745506154e-19  -8.6061769813238520e-05  4.8099977674840819e-17  4.9288887901638665e-22  -7.1195465174252621e-16  -1.9700144989834207e-19  -3.5980652476779180e-16  8.8253378668434281e-13  -6.9603200510604046e-19  -9.5022526797606528e-13  -2.0318266652757956e-18  -1.1910460862034995e-06  5.1845004034658841e-11  -2.3227906474265837e-04  5.8076232761686319e-10  7.3883348992428560e-17  -1.6126949585975201e-06  -1.1529595981381186e-14  1.1599261092966356e-11  -1.9907725787374547e-18  1.1277715579204180e-13  -8.7865860908305615e-18  -1.1579039868555187e-18  3.3894843804628706e-11  7.3612976681892885e-12  -8.0733855366236724e-18  3.9708050890628725e-10  -3.6775662240256319e-08  1.4720342998924060e-09  -1.4742797294939280e-07  -3.3493765736572619e-17  -3.1036630974313358e-15  1.0308786541990171e-11  -4.5964361058573040e-13  2.4180504439121496e-06  -2.6581630555708526e-16  6.5202099797753183e-16  2.4028090414646514e-16  1.3282674545596723e-15  7.1530303936201393e-14  4.7677909657995301e-17  -7.5159612404281328e-18  -4.3959350075060879e-03  2.1257621048814274e-05  -2.0382723999013543e-08  -2.9688005469226264e-07  5.8720270239649866e-08  -1.0058288283632946e-07  1.8503168422874938e-09  -1.9117574922742543e-12  1.7883340092388877e-12  -9.8929875644126108e-08  6.1330371889074783e-19  3.7720403805275250e-12  -2.7573582726702535e-16  -1.2525881530783658e-09  -1.2647134690076008e-10  -8.0087008779989906e-10  7.9860581442873577e-08  -2.2919056889074349e-18  -5.6762077715933422e-19  1.8352530408489791e-11  -7.3512470479858751e-13  -6.2173690822391085e-14  8.3097913480625368e-18  -3.1066414586983180e-16  -4.1550850402165105e-10  3.8268633499424369e-09  1.9373192442663453e-19  -2.5103484867435516e-20  1.4391347127096107e-15  1.1491595352106019e-11  2.4173513340691383e-12  1.0758955427070492e-11  3.4649210487467910e-12  -3.3842461202341573e-10  1.5262782511326993e-12  1.3489253453381808e-07  -1.2194046593774207e-21  -1.3419871646566580e-18  -8.3913534400048250e-18  2.6611374422862986e-13  5.1496601105508159e-14  2.7307990151957921e-19  1.9062028586676813e-20  1.3863947580171072e-20  4.0392046373256087e-20  -9.3681118175371705e-12  5.3315011039832041e-12  5.4218546588164339e-14  5.2245423746189971e-09  1.9565819799335910e-11  1.1007454380027945e-11  -1.0842479459268821e-16  3.4154677819183343e-10  -6.5502960627692480e-16  -3.5742897521876632e-09  -3.2040638676259076e-19  -6.6605936928765154e-16  5.0830099027320128e-16  -4.8261842933688682e-15  -3.0298850119061105e-15  -4.9279031933938260e-15  -5.3705586627093212e-14  2.2631051671460436e-13  -4.0104930310863904e-13  5.4454144209819115e-13  1.7013000200157973e-11  -5.5201513595167781e-20  1.1377206720323782e-23  -8.3453793556731359e-17  2.4220105319760575e-16  -4.5464129329993736e-20  2.3597909113050921e-18  -3.4127926865447168e-19  -3.5889988030103768e-18  9.9265729338437420e-17  1.9686101948715038e-18  6.9426470619424906e-17  5.4846466752800187e-18  -2.4788810330296264e-17  -4.7679396611843956e-22  3.9482092312686398e-19  -2.1079117049180700e-20  6.8813954646354973e-21  1.3361064372685783e-18  1.2952122211909610e-03  8.0788237572140886e-09  2.2340665877896723e-10  -3.3373479051719308e-11  -5.0821995002929095e-19  -7.1095675546317169e-18  1.1434391142522645e-16  -2.1118675652000217e-21  1.3104880620627307e-07  -3.9908680081657957e-13  -9.1055261512552049e-19  1.4034998522497172e-07  -1.2910088304314486e-19  2.9740628525748261e-10  6.1868871299718058e-14  1.11