<?xml version="1.0"?>
<VTKFile type="UnstructuredGrid"  version="0.1"  >
<UnstructuredGrid>
<Piece  NumberOfPoints="3002" NumberOfCells="5870">
<Points>
<DataArray  type="Float64"  NumberOfComponents="3"  format="ascii">323455.6100285493 6048753.88242996 0  323455.6100285493 5954782.59950515 0  405920.1480513444 5954782.59950515 0  405920.1480513444 6048753.88242996 0  405920.1480513444 6001768.240967555 0  323455.6100285493 6001768.240967555 0  364687.8790399469 5954782.59950515 0  364687.8790399469 6048753.88242996 0  364687.8790399469 5996367.117560402 0  323455.6100285493 6025261.061698757 0  382226.6271443229 6022560.499995181 0  405920.1480513444 5978275.420236353 0  323455.6100285493 5978275.420236353 0  353897.8957397301 6022560.499995181 0  344071.7445342481 5954782.59950515 0  385304.0135456456 5954782.59950515 0  405920.1480513444 6025261.061698757 0  354379.8117870975 5975574.858532775 0  381582.8168806895 5978840.396198289 0  384950.2598624413 6001768.240967555 0  344643.0480768835 6003429.02033719 0  344071.7445342481 6048753.88242996 0  385304.0135456456 6048753.88242996 0  339717.0321562298 5986078.187627405 0  337515.036058786 5969821.016310448 0  368062.2614420265 6013076.224998265 0  368062.2614420265 6032044.774992097 0  393987.6142659165 5988729.699941677 0  405920.1480513444 6013514.651333156 0  392856.2821527076 6034589.119828064 0  393514.9611654527 5968369.338068204 0  339399.8087404341 6032061.482581838 0  323455.6100285493 6013514.651333156 0  374995.9462927963 5965504.865595459 0  354379.8117870975 6037976.901948514 0  338123.9088969378 6017031.529131207 0  367397.3120126425 5982072.559192053 0  351882.5752379905 5991998.990225234 0  376945.425450199 5991232.708824487 0  392265.0061656896 6013300.936254065 0  357029.7426706699 6006608.947964352 0  380093.6207558212 6036880.127749795 0  323455.6100285493 5966529.009870751 0  405920.1480513444 6037007.472064359 0  405920.1480513444 5966529.009870751 0  323455.6100285493 6037007.472064359 0  333763.6772813987 6048753.88242996 0  405920.1480513444 5990021.830601954 0  323455.6100285493 5990021.830601954 0  362879.3643765316 5966837.319094267 0  348367.6438548031 5965604.161682394 0  334493.1989038612 5996935.948935225 0  395068.5043068817 6023875.372615605 0  348216.0324377587 6013504.844950221 0  379305.9090074943 6011603.390019651 0  372523.5158233726 6003480.000732267 0  395435.2039568929 5999384.346358113 0  395612.080798495 5954782.59950515 0  333763.6772813987 5954782.59950515 0  395612.080798495 6048753.88242996 0  374995.9462927963 6048753.88242996 0  374995.9462927963 5954782.59950515 0  354379.8117870975 6048753.88242996 0  354379.8117870975 5954782.59950515 0  335074.5981535012 6007206.680367459 0  391925.2695590468 5978591.908877409 0  371969.1707190623 6022560.499995181 0  383872.162544519 5969415.106147043 0  358038.7139835292 5984533.09712744 0  369699.869182786 5973102.2359358 0  369841.9126663716 6041099.453006387 0  343176.7440329155 5994428.220622956 0  362933.5332293962 6024385.235173292 0  330640.1760208776 5984148.625419154 0  348684.7494355051 5983110.856817525 0  399094.9690929834 6007537.420809742 0  345447.6324516311 5974162.84917082 0  332859.7749513451 6039150.972778062 0  344517.044630671 6024057.945416138 0  332973.1214415312 6025037.914505113 0  341428.0126373461 6040493.820728126 0  385874.264691618 5992757.40885039 0  350337.3662538711 6030387.535304286 0  359887.2373602368 6016186.250094838 0  377097.8989316926 6029115.217702097 0  338917.7109078235 5961484.016839475 0  329495.5261590715 5972402.215053552 0  336644.7280634616 5978216.610794215 0  330688.6715098422 5962480.256438018 0  359899.8039476132 6031963.415584587 0  399746.255941904 6030426.523907755 0  385511.6875144855 6030368.508996127 0  387377.735783329 6040763.821024337 0  398832.192399829 5974431.100387635 0  387992.9498994246 5962432.032572681 0  405920.1480513444 5984148.625419153 0  364925.7641745284 6005782.953640081 0  361769.877068089 6041226.651684469 0  398452.9199001931 6040850.732439541 0  398946.6205243983 5962252.502309519 0  362305.5577564609 5975984.89789681 0  356822.8065216601 5998470.186307689 0  386900.7115926162 5984820.732438302 0  329528.0119279922 6032067.230024892 0  331139.6939744562 6013813.572928222 0  398457.5876798834 5982541.698799337 0  405920.1480513444 6019387.856515957 0  398685.5166750694 6017257.578706384 0  348587.9424884976 6042755.309150081 0  369841.9126663716 5960143.732550304 0  380149.979919221 5960143.732550304 0  359533.8454135222 5960172.384722514 0  377147.8814772839 5972649.581024994 0  341756.3455763521 6010124.092444684 0  355615.8176864882 5966311.193813809 0  369144.4338274571 5989807.770003954 0  375185.9047422862 5983510.422041401 0  323455.6100285493 6007641.446150355 0  391856.7960121195 6005888.565703365 0  371978.0245217044 5996361.134308098 0  405920.1480513444 5995895.035784755 0  378877.1880032702 5998073.745937059 0  359056.6617417652 5991643.489540118 0  399278.8743430426 5993436.466134224 0  386116.8775939071 6009922.097099247 0  323455.6100285493 6019387.856515957 0  388994.7833819839 6019826.789191471 0  348897.6207366391 5998116.079250046 0  345456.3301153719 6035064.814295612 0  323455.6100285493 6042880.677247159 0  334124.3013408988 5990072.953472659 0  377097.8989316926 6018059.782440464 0  323455.6100285493 5995895.035784755 0  342871.8474798963 5980154.238874755 0  373596.9793292385 6035659.183886081 0  380149.979919221 6048753.88242996 0  376327.9292813152 6042294.581731233 0  329163.3548105369 6004704.843558955 0  350303.9432136903 6007093.032074522 0  383982.6552804571 6015912.664375832 0  345515.490569988 5988567.439252969 0  379019.812877927 6004678.052169549 0  365541.9137639466 6018750.691894444 0  349225.7781606728 5954782.59950515 0  352493.3399767278 5960815.406895458 0  363683.8130458911 5986976.225872464 0  386666.791301207 5975084.583584332 0  368937.6553346639 5966171.092344863 0  400003.9882214358 5968352.273777306 0  328776.0063842635 5992958.433193355 0  339958.4428758043 5999572.344589042 0  354577.7732363954 6012555.454074449 0  328609.6436549741 6048753.88242996 0  382053.0280278458 5988228.496807038 0  330708.6817934912 5978212.973348036 0  372084.7734679543 5978495.086505585 0  358568.2738174705 5971419.415228934 0  328931.2672829705 5998832.905089681 0  323455.6100285493 6031134.266881558 0  405920.1480513444 5972402.215053552 0  405920.1480513444 6031134.266881558 0  323455.6100285493 5972402.215053552 0  405920.1480513444 5960655.804687951 0  323455.6100285493 5960655.804687951 0  405920.1480513444 6007641.446150355 0  323455.6100285493 5984148.625419153 0  405920.1480513444 6042880.677247159 0  346648.7613474604 5960023.05127712 0  342415.3891593561 5966358.988213831 0  350507.6510228226 5971111.740321856 0  391773.9667214506 5994456.117700323 0  338875.8905424621 6026088.827345025 0  361429.1735454847 6010511.262533597 0  389395.7028803263 6025805.543023561 0  392895.6464692951 6043315.288173481 0  332846.8296575367 6019296.633131165 0  373337.4404588729 6009693.515402478 0  336544.3064612215 6043648.151399015 0  348610.2411382072 6019567.839754772 0  381943.4597763228 6042183.394750732 0  355630.0631288611 6028071.82801846 0  363941.5238882306 6035967.852698964 0  328179.67203552 6022271.326978176 0  401066.2857736665 5998807.415073814 0  344387.1099621175 6029612.545574771 0  393435.2235156003 5960233.556458537 0  400735.9970493424 6022675.638064924 0  393708.5772019727 6029179.837160029 0  400609.0696943338 5987857.851798974 0  361753.6614662939 6001152.171757337 0  400766.1144249197 6048753.88242996 0  353363.0524357285 6002630.165620538 0  343248.328463803 6018790.640008039 0  356419.8105951758 6043365.392189237 0  390234.385899412 6000759.497967276 0  368336.1168551637 6000220.532318851 0  328609.6436549741 5954782.59950515 0  387520.8298169724 6035372.992507171 0  400588.0280660195 6035823.299583429 0  329021.6598427091 6043194.252697862 0  393371.710206733 5983576.325812268 0  393638.9721728675 5973623.513063556 0  371727.9212466564 6017113.044457142 0  364687.2762977295 5959941.212693035 0  374995.9462927962 5960346.83186599 0  369841.9126663716 5954782.59950515 0  400766.1144249197 5954782.59950515 0  338917.7109078234 5954782.59950515 0  369841.9126663716 6048753.88242996 0  359533.8454135222 5954782.59950515 0  390458.0471720704 6048753.88242996 0  338917.7109078234 6048753.88242996 0  390458.0471720704 5954782.59950515 0  359533.8454135222 6048753.88242996 0  380149.979919221 5954782.59950515 0  349225.7781606728 6048753.88242996 0  339867.4956514095 6005339.817053361 0  333737.9460226952 6002130.523287664 0  336955.8140048417 6012008.440073739 0  377097.8989316926 6023232.32559834 0  371748.9790486701 6028016.629988787 0  338146.5171983215 5993298.164761053 0  355016.8390227688 6017610.913088997 0  393953.1528190996 6018968.416019509 0  335185.8133477239 5965142.63403323 0  328616.6041642396 5967263.80307608 0  380314.9487662361 5965460.362415641 0  354622.8993466098 6032976.142863722 0  328521.4725131759 6027215.026914048 0  334465.0783479523 6034070.534389696 0  328123.6212682287 6009699.206425843 0  381889.5169855529 5973936.741901617 0  359122.3484437474 6036790.002992895 0  386341.6533148278 5979963.279841923 0  400798.2159679119 6012477.871311778 0  388538.3765260249 5967461.292146791 0  340833.8784183678 5975728.708105717 0  355307.6239213505 5988552.151815021 0  362181.4274823388 5981261.937800813 0  353784.0322742948 5981044.538811012 0  358045.1698423899 5978741.391518688 0  328423.7350325213 6036912.015930048 0  366897.6876966125 6027277.723668203 0  347355.1745641421 5978532.307510624 0  376820.5060332146 5979033.270735624 0  349378.1778589479 6024378.632814493 0  327189.2282939323 6016451.253924556 0  338433.8773236172 6036753.902881841 0  350141.9760340559 5987605.90026687 0  363794.7083927878 5991713.491814731 0  350325.1285660182 6035273.515460094 0  382355.9358007369 5983507.499638396 0  327107.0747437811 59811
[...]
<PointData  Scalars="f_58-1"> 
<DataArray  type="Float64"  Name="f_58-1"  format="ascii">-9.1049065874175120e-24  -8.9527682941359524e-24  -3.4577045932660771e-18  -1.0798690465392808e-21  6.4711776456263229e-11  -2.6965878451160630e-17  2.0337429744686168e-17  -1.0920824911413563e-17  -5.9735036015181820e-05  -2.4893628444286804e-19  -8.8572221670367480e-11  1.0288161775351640e-12  -2.1246201866199653e-19  -5.8195319373112348e-11  1.8344933815816728e-19  5.4856246901285864e-16  1.0603472211078721e-14  3.9908554263060059e-12  1.1892540760257668e-06  2.1335262308075129e-04  6.2753764555567041e-09  -8.3015323835473134e-19  4.4464038357480196e-19  1.2664592823542318e-12  -6.3755479801585383e-18  2.0002063787885394e-05  -6.0010386968517822e-13  5.8000603185352230e-07  1.5945080607382312e-12  -4.0870834903710099e-16  8.1132575260586788e-12  7.6199203464171393e-17  -9.1834857376058498e-18  1.4288953837137830e-11  1.2721891541872226e-13  5.1248411946263115e-15  4.2533996433267663e-07  4.8575685923283475e-08  5.5486451834983144e-02  2.4332747029588342e-08  4.5413786203845625e-05  1.1286780526752637e-13  3.3671895355780646e-21  8.8036325001288099e-19  -2.9673590911454966e-15  -3.3630885315740260e-20  -6.5284590551958471e-22  -1.0502218588074442e-11  -1.6428599981866515e-17  4.1795544314189927e-12  -1.2792003897810156e-16  -4.2105813005572406e-14  -8.5478465280718511e-14  2.0999519997034646e-09  2.4403854536581476e-07  -6.7379981693191432e-03  8.7033124951121055e-07  -9.8890314927859344e-17  2.0334348598246114e-21  8.3213954267502287e-20  -5.3537296595841598e-19  -6.9225328413736177e-17  -1.6623871253185879e-18  -1.2580188178297093e-18  7.5581017944432924e-13  7.3079007338980571e-10  7.1689858181904577e-09  -7.5846888203086413e-11  -6.9881695269865803e-09  7.9799507676967378e-09  4.1610891604087373e-15  1.1391849101344342e-09  5.9167073126721747e-10  -4.5316485059182108e-17  -5.7503529709539580e-12  1.0741049098917833e-09  1.2360362529095618e-13  4.8123286231907619e-20  5.6459366110015203e-13  3.4575886080691944e-16  3.1312478425159815e-19  8.0772853365550980e-03  1.4217574082370600e-12  -5.8948838273493865e-08  -7.2017117228196076e-13  -4.9944729474158887e-19  1.0068867216007000e-19  -3.7533010664820886e-16  -1.2001063411998745e-20  1.1767086643827725e-12  -1.7557371995749655e-16  -3.0750619491464889e-13  -4.0439989322343873e-17  1.0408852954749739e-11  9.0435068137539270e-14  3.2904935770068899e-11  1.5472112743047017e-03  1.3936500882945449e-15  -1.5153480717184031e-18  1.8804864117810639e-16  2.7170533064837407e-09  2.3815746035211989e-05  -3.8981521853116202e-07  1.2072251266133585e-18  -2.4013955548375966e-16  -1.4971523450612096e-10  2.2758130049691176e-13  1.1906470764082406e-11  -9.6332866108618074e-17  -5.3589262719381472e-15  -1.3158116302368180e-14  -6.9070233267508801e-16  6.1250515192855176e-09  -4.5895632088956654e-12  9.1208033387854676e-14  1.9463870475130678e-04  1.5329648285092467e-04  2.6167385237369662e-17  2.3413783278169709e-07  6.4958763163550426e-01  1.3496960840665660e-11  3.5897457251419174e-01  -1.4467458215334643e-07  1.9874978302803357e-08  -2.8126530882790028e-07  1.3753788539906817e-18  8.1512962471439908e-11  1.5317161009883160e-08  1.6528326399089265e-16  -9.6735104818951512e-22  -1.7636443500130630e-14  3.1165382953383715e-07  -1.2357481043497979e-17  2.0980674010005460e-13  -7.6277529316874345e-14  -9.2431140444298486e-18  2.6087400734373228e-16  1.1046198744271198e-16  8.4355857397957417e-10  6.8913354860444569e-09  -2.8524218752711189e-12  -6.4556875434429460e-07  2.4251517297764901e-07  -6.0493540403566624e-19  -5.2149450977747358e-17  -8.7120010375588307e-07  5.9822183350842708e-08  1.5150948294954268e-11  1.9420547591151020e-13  3.3263172405570330e-16  5.1555084931586115e-10  8.2398713602050690e-08  -8.9805582724089913e-23  2.1302506332075352e-03  8.9993687111667268e-18  -7.1154390847886705e-08  -4.5391364176988281e-13  6.6020180338268923e-16  -1.7566271798437022e-20  -2.9126609637804464e-14  1.8674181222918170e-17  -2.7880083584167948e-20  -2.7811607137187126e-17  -8.0539068085248550e-23  1.3750193675407225e-11  -3.8748824944227351e-18  2.7943269603458663e-20  -3.7733887951158365e-18  -4.3194719703124703e-17  8.1017972270280815e-15  2.1170752989795583e-05  2.0331362026201786e-14  -2.9764417603492986e-07  2.3419420224960156e-12  -3.3708024347429401e-18  -2.7653194355977524e-16  -8.6995336490460183e-06  -6.8792141107444979e-22  -1.3536948762401940e-11  2.8242926235079159e-17  1.2943980169949452e-11  1.5571119782573353e-13  -1.2106619221724708e-18  7.0587785740500230e-10  -4.3533544269268721e-15  7.3542713392624900e-14  2.6442184574725778e-13  9.6734235410666869e-15  -1.1756401725569258e-10  -2.6002018815837119e-05  -4.0412873533369709e-21  4.9372929693672086e-06  -1.2116761847923880e-12  -1.3530269234589268e-16  2.0759558882772303e-06  3.3067916095375511e+00  -8.1206255663471223e-23  -2.7301158016042720e-15  8.4323980402327930e-18  -2.0534391837349991e-21  8.0291704321119521e-08  6.1255885774116459e-11  2.3658818824424144e-06  8.0625473289702785e-16  5.3255081732302785e-14  -8.1134697253821759e-17  -1.5927222482375502e-17  2.7112214359275592e-20  2.1839397296720595e-17  9.9617889050534160e-18  2.4728958928869764e-19  2.0558177671709711e-20  2.7115263823313047e-17  -2.4854574648526424e-18  2.1305311502956073e-16  -4.9961906339285825e-18  1.8759156766038319e-10  2.3079005649625965e-12  4.1221976350127522e-13  -9.3253058298631804e-10  2.3662911890212370e-10  -3.5553187339550147e-13  5.9163349805167226e-10  4.5660152703982508e-11  -5.3386768090478164e-19  -4.7247269374647268e-20  6.9018424933904871e-14  1.3445445533546625e-12  2.0459031294860846e-18  7.3410273013733900e-18  3.3455651263749539e-16  6.0640370483499087e-10  1.0240875569702545e-13  -1.5065254212125390e-08  7.7904651979115493e-11  6.6018171694353494e-11  1.0089033101802049e-15  -6.2005143155100528e-09  2.2911876556313280e-08  -1.2802622777926759e-11  2.2863233854747426e-09  3.9051801706648049e-20  7.6572137325469123e-12  -3.1042136771074807e-13  8.0187212308839095e-07  -1.1117712749293911e-12  2.2887957910047478e-17  3.1894779078953072e-18  1.9609309303774049e-09  -1.8838674459348104e-05  -7.6219118267757863e-15  8.3902135392877002e-05  -6.1023786578738454e-19  3.7865779828645019e-14  8.4122875090793994e-17  -2.0465011148534259e-03  4.6163120877808151e-10  3.0382528265095077e-11  8.5503963703145105e-09  7.4488311541531238e-17  -1.2857394538676548e-16  3.1855273873752334e-13  -2.0414050314482043e-18  -1.3831257004576608e-17  3.5512072656799481e-10  3.1429479352981915e-06  2.5374775828984682e-17  7.7381176114234773e-04  1.3130199489566367e-13  -2.5558823119545504e-10  1.8549985453343722e-05  1.0000199680366618e-01  5.0707011645968868e-09  -4.9277590253345879e-16  9.3750252245451534e-10  2.6644735325546720e-10  2.9849538655321821e-08  1.0951140145747786e-08  4.1083286218794582e-05  -3.4277056099473776e-13  -4.5451881470687442e-12  3.5961905658590882e-11  2.3377814256576123e-07  -1.0849152996053693e-06  -6.5107459762515909e-06  -1.1797762262166908e-17  2.4573078711674334e-09  -2.7308985183625618e-19  -4.3688632774838672e-17  2.3206038440321496e-09  2.0841911718196336e-11  9.8345805206987331e-10  1.2168333021701027e-18  -1.2421370629059623e-11  -3.1609214973367677e-13  1.6580855370165590e-04  4.0805971011630869e-14  2.3909631415205829e-22  -3.8094934076871602e-19  1.9209917814288490e-05  1.1198716117485702e-16  6.0952080019832480e-16  2.0463314477063939e-19  -2.9582952350978866e-12  -5.4892916016233425e-20  1.9958977144650245e-20  -6.0327829413978818e-21  3.8505879240724622e-01  5.6566844348573223e-17  6.1214883352891415e-04  -2.2152853348569785e-17  -1.3019619303768884e-21  7.6868858887300632e-16  2.6008515536207633e-12  2.2639677385456905e-13  4.4375705909787759e-15  1.7141550138312161e-11  5.9381708844199133e-13  -2.1556583769900183e-15  -7.2676200929292428e-16  4.6455380752686343e-12  5.2504156471597731e-07  3.4216475999866414e-05  2.5064995959253421e-04  -7.4005506467181359e-17  -1.4493827401886375e-11  -3.2227226060329094e-16  -2.5751710525185729e-22  -5.2582848606777506e-20  -1.5682701731284638e-13  -5.9000151397224353e-13  3.6918723854025683e-12  1.7576584078313031e-12  1.2614087698602567e-16  -1.6061983126673748e-15  2.1130127472959958e-16  -8.7168082936007563e-04  2.4943865241385251e-10  2.4684207383319043e-13  5.5993564218447742e-09  1.1930222355900314e-04  2.1991329778438037e-03  -7.1093514537615653e-04  7.3740236225346050e-03  1.2435149101859083e-16  -1.7299950260707033e-08  -6.0560530991058800e-12  5.4437541301161830e-13  -3.3809598551773643e-12  1.6793396573312257e-10  -2.7872112044912536e-23  7.1969743694752190e-21  1.5177786940846936e-07  1.9919409413764769e-14  -5.2409590989709010e-15  6.3948321521824521e-07  -5.0005082853471430e-16  3.5356633772383479e-09  -1.0519336936445356e-16  2.1854337365839423e-09  2.2826202494926215e-08  -3.2664214701113022e-18  5.4002359877986460e-20  4.7903852179238902e-04  1.0211717465839484e-09  6.6222702882390743e-13  3.8434299234074050e-12  -3.2181089408790265e-14  -1.3934644035472599e-21  -4.2360924913837075e-18  -2.3245087126684111e-17  2.3566129699884764e-03  6.2816278436771248e-10  3.8253198589541541e-17  -5.6030489845487368e-16  -1.1373274313958653e-14  1.1026426308560361e-13  -1.8292676451323293e-15  -5.9931145418876806e-17  5.0406314978867239e-07  -9.6521474350470801e-09  1.7506737549384494e-12  -1.0116185059557200e-17  -3.6230277184598861e-14  1.6204448377904666e-10  -3.1641852682836202e-18  1.9221206410529813e-12  -2.2209716013098093e-06  1.2921834814836175e-09  2.7694167256537484e-12  -5.2362997067949520e-16  1.0272443229283435e-16  -9.4337508023572730e-22  -3.6374646533125118e-15  3.7945179614084433e-05  1.3043170281902945e-11  5.5965776519131474e-14  5.3679934631329091e-12  2.0075404109280995e-12  2.8742741551140869e-14  -1.4381136926136398e-11  2.7790223966983634e-11  2.9661818641250511e-17  1.6020881906926335e-13  1.3617103981250248e-07  2.6942740644915171e-08  2.3559176994662298e-09  9.4063053576598072e-08  -1.7667202045088586e-07  -4.5727052588472930e-10  1.2724177487008184e-08  1.3613622322739835e-14  2.8604609206828800e-15  -6.9387181813071908e-08  -5.2085026518606258e-21  3.8092075421025228e-04  1.9983481797910136e+00  -6.3839537707787966e-20  8.3506795569597544e-16  1.2493146526591177e-07  -7.2471637759484306e-13  1.0237138315685134e-05  2.5070177442981756e-15  -6.6897744582269082e-18  -3.0637152281373509e-18  -4.0389333565541187e-19  -4.5009867465760757e-18  4.3479893417569159e-11  1.1436335228165786e-08  -5.6344160085012789e-13  1.8715170264932235e-11  -2.6168542800873343e-18  5.0463749386662815e-08  3.7095554293619131e-06  5.3605929346523462e-07  1.8191341600209693e-10  -1.0333385270237809e-15  3.5017570789761515e-10  1.4948652664141331e-06  7.1113810899141206e-08  -1.1940811553869760e-06  9.0130254192414755e-10  2.9329471799668187e-11  2.1073146589815943e+00  -1.1131417777761643e-19  -1.6274748867055350e-12  -1.1676635912955279e-11  9.7969794358187453e-09  -1.1058100466300642e-15  -9.0702529899916141e-15  -3.4141693723788017e-18  1.8156045800230968e-03  1.3376003010288489e-06  1.1867941980784341e-13  3.9599336238884350e-09  -1.5864562732905224e-12  -2.1165787990537079e-17  -2.5761601927280985e-10  -1.8426898029683078e-13  7.1125697131570823e-06  9.5558192567688283e-17  -6.2278980281372756e-16  5.9887953221836604e-14  1.1085026622693851e-11  3.3785976934527018e-20  4.9183023662448523e-13  2.2054293619842212e-16  3.8767526115580544e-11  3.9756473619993434e-11  3.8061745757165662e-07  -2.2877803482820694e-15  7.9387273321209424e-10  -1.2515178338357489e-11  3.6475008317264982e-19  2.7394035032926735e-02  1.7693571428421025e-16  -4.5119037733151103e-13  1.1043042026371966e-12  -1.4644399514952362e-10  6.4139364363169942e-08  4.1274841897812892e-18  1.3739524339250312e-09  1.2008234872319546e-02  -7.5750618370435088e-15  1.6928345484532548e-11  5.1855112827332573e-13  4.5469960967764381e-14  1.7465748307883519e-16  1.3035163839615534e-12  5.0219469220218833e-05  3.3917137758927147e+00  3.1822867692969491e-12  6.7412367320072560e-12  6.8130970791690881e-22  2.9503547556343916e-11  -1.0099533665876922e-11  2.6684982224043372e-07  -6.3402572633657325e-18  -3.7166801317597259e-16  -1.6072070414948123e-17  1.2300262195858497e-08  1.9467958826451655e-19  2.1780183434925521e-19  -2.5737753758105757e-19  1.0114597110060345e-17  1.6395973186026761e-09  -3.8027261702487212e-08  -1.0544320468252262e-08  2.6737002110069162e-17  1.8317318605771064e-08  1.9581781441760512e-14  1.1109994978913909e-09  4.0428058156806485e-16  8.8413534511116800e-06  -4.9254076032316891e-08  1.4567285757686588e-09  -2.2243894364595044e-13  -1.5317160010211140e-12  -7.4886789538366702e-12  -4.4400950869451271e-03  -1.1004682175101012e-04  7.9063617644552174e-05  -9.2754553001148727e-10  1.4133747490488360e-16  -2.1271070819606767e-05  1.5461227923674319e-17  3.6684881511781952e-17  -4.2958281425669359e-17  2.6509485454607402e-17  -2.0505124118336926e-16  -2.0998329640432696e-16  -7.5415780334666271e-21  2.9297898703900171e-08  9.3089086538370635e-17  -4.4381272768559407e-19  1.3226340588174599e-17  1.3795447011352707e-14  5.6908968076953789e-14  1.3136469544059210e-09  9.6927138313151608e-23  2.7699563381460233e-23  -7.2465272845317457e-16  -4.7781692050100081e-23  -7.5223434644213274e-08  -9.4423216730324672e-08  1.8087765085920090e-06  9.4039293132391595e-05  -3.2065633388934928e-15  1.7354829078841608e-05  -7.3953365630463970e-20  -4.1392295577827515e-10  7.5829459153093152e-13  1.5463008830882144e-11  4.3455202203330042e-11  4.0978579529958066e-13  3.2453878028572434e-08  -6.3992850228930789e-20  -1.6446945981915114e-19  1.5601111916214501e-17  1.2183518717978462e-18  7.1533348234638615e-17  9.3683984513930018e-14  2.3833742181528972e-08  7.4356619431014290e-12  -2.2340767791325813e-18  -2.1757551617108578e-10  1.3849931287756083e-10  1.6201211085305261e-10  8.2781356019711795e-06  -5.4718279575487422e-12  2.1208845803247653e-17  -1.1819415379860369e-16  6.3553019540531433e-17  6.8668604629009361e-14  2.2090129230337017e-13  8.8416450483729218e-18  5.2828808912376907e-18  -1.2345946562793769e-15  2.3597618317362945e-13  3.6054404749117121e-13  -2.9341108183831558e-18  1.2577918638272459e-01  3.6823485918041242e-04  -9.7760024197063391e-12  9.7130945107916259e-20  -2.3739260179403650e-18  4.2202948645996793e-17  2.5147698440414975e-18  -5.8293355986715371e-21  -2.6789250100903056e-17  6.3328666565511994e-21  4.8191672334203257e-03  -3.4514427835944815e-04  -2.1228412354949212e-15  -3.5016903025457053e-15  2.1473389239945711e-12  5.0761668634857398e-18  4.1865096496551563e-19  3.9656000385232489e-13  7.1505098973103281e-10  -2.7173833128081107e-09  2.8220187127565684e-08  -9.2897970218741646e-12  -4.3575227958169133e-07  -3.3012721929443121e-06  -6.7635563122232152e-05  5.2577600000221449e-12  9.6083122327821889e-14  2.7270650164409474e-14  1.7699697575626222e-15  -5.0119037648293311e-17  -9.2653475448932839e-18  -8.5979570749152341e-14  2.6482376925063300e-18  9.2180424273074286e-20  6.0116300303731093e-13  -1.6760667025946901e-16  5.3919786483082055e-16  -8.2730239092155103e-22  -1.6658265633551118e-19  2.8792045291604276e-12  7.4233264134995284e-19  4.2744103461265561e-11  4.6812676591680405e-15  -6.2282125758976459e-14  -2.0644511641223109e-16  -1.3061941804788040e-09  -2.5064089435925376e-12  1.6362096434307994e-10  1.5756112955213666e-12  -7.1204409177906651e-19  -1.4084538244752121e-19  7.6188580554321899e-19  -4.4628416086271131e-22  -1.5537524585443236e-19  -1.4229421765665702e-20  3.6102103931547751e-12  1.7307650120181752e-10  -9.3140539818458919e-16  2.8208619661956344e-13  1.3409742097573128e-09  -3.9130653008228770e-09  6.4378054046314785e-12  4.5235675471598621e-12  2.2531537077984430e-10  -1.2181465127439787e-11  5.0799897414791284e-12  1.2148162378784733e-15  2.7946726215244860e-17  2.1111304624819604e-17  5.5807929129628607e-14  -6.3307974284112285e-16  4.3299406099371766e-17  -1.6088810668215901e-05  2.4737676555996161e-10  -5.6527379328732957e-17  4.8992645309744442e-06  7.5570851558786105e-14  1.3840069438398597e-12  3.5305532555712541e-14  2.6538434647025914e-10  -8.4995862350641723e-05  4.9937497467028073e-23  2.8947481607313038e-22  -5.8443898938367019e-07  -1.0618377584655557e-20  -6.5172925288572959e-17  4.5068434682712340e-05  -1.4371952239827664e-03  8.1545476348685985e-04  -9.1207618362019691e-19  2.2579021690683367e-16  6.7479358806858951e-04  2.2857851834133943e-08  6.5069177182833631e-19  -7.6803033130546667e-03  2.0777829922680533e-17  5.3953903312144562e-22  -4.7109091795183569e-14  -6.3977759938193604e-20  -4.2367719026313853e-16  1.6362141693188394e-10  -3.3408078195793134e-17  1.6251058136493533e-12  -2.1924633809676062e-17  1.2067282072047848e-04  1.3901307854885494e-10  2.2432148215996536e-03  2.4974637849053858e-09  8.0038187157270702e-19  3.1287581440993793e-04  -4.0569662565890054e-14  1.9622050533953386e-10  -3.6109746737182574e-18  6.7932162236950114e-13  -3.9045751048113110e-17  -2.2187766341290467e-18  1.6585911081625795e-10  2.9644068426738005e-10  -2.0189847897998706e-17  4.3987963564821246e-09  1.0944835700676529e-06  1.0652810304214598e-07  -9.9896391613574196e-07  -3.9899647463519874e-17  2.6421612330373927e-13  7.1485629067291641e-11  -3.1455644948993990e-13  1.8922342711414466e-07  7.5038121430401421e-16  -1.1283189656068722e-15  3.7721041332185087e-16  1.0479816678524564e-15  4.3331907104340629e-13  6.8608566910978214e-17  1.7869120423116954e-17  3.7218824347906878e+00  4.0620749729087163e-05  1.5483752223523448e-05  -5.4363330924881719e-07  1.2253255804459264e-06  1.3097123871561470e-05  2.9662673336987407e-07  9.2904588147268350e-11  1.3744354756798021e-12  1.4978250458598030e-06  1.9494448540227603e-18  2.2770130643907991e-12  -3.1384673457890315e-16  -1.0879363679151906e-09  1.9439419320039668e-10  -1.7883297772415514e-10  9.5242108367616037e-07  -1.0108271348967822e-17  -2.5083916786592853e-19  3.1378339665222777e-09  -1.3711825513098668e-12  2.0816794916856609e-12  1.7768111673051715e-18  -5.6820205251496870e-16  6.4727154852633636e-09  -1.5180767113173377e-09  6.2926163579460901e-18  7.3329061731787831e-18  2.2105245538418519e-17  4.2458047405180346e-11  4.4213092193194465e-11  -1.0844523486613875e-12  1.1640591030144194e-10  1.2260718190685795e-08  4.7319369486432253e-11  -4.5794543284278283e-08  4.3595981784819505e-21  2.5831759143785358e-19  2.0055274052285149e-18  -2.7956226305453623e-12  7.0100775866371270e-13  1.8191523338068513e-18  2.0691164467449611e-20  3.3030329799037523e-21  -9.1237866882622193e-20  -3.6935950171447114e-11  6.4496493334857958e-11  2.6582162090143948e-12  1.5055034430398108e-09  4.5830087197797296e-09  1.1898664245182183e-08  2.0305157498269740e-16  1.3781382972960658e-08  -8.1863534453293845e-15  4.1663103290336374e-07  -2.8120140697696179e-19  -6.5324893794771366e-15  -1.1936466478617344e-16  -4.1329561070993883e-15  3.2537039994194832e-14  -1.8634375067444341e-14  -1.4503149347809176e-13  9.8386083792392591e-13  3.8629632079801714e-12  1.2828640488840342e-12  5.3821833847600839e-11  3.1730913743357254e-21  5.2518652954375933e-23  -1.9565780130248869e-16  3.2409873008674464e-16  -1.2476171571443079e-20  3.1207927312215584e-17  -6.1336413176914064e-19  1.8655359839100859e-18  1.3800758469979951e-17  -1.4063670089889356e-17  -9.7290819604734599e-17  1.4240441942460283e-17  -5.3092198943163965e-17  -3.1866596143292965e-22  7.9288400678335956e-18  -2.5247963801651494e-20  -8.5365893469338385e-21  1.8618115381135459e-18  3.6174811199166174e-01  -3.9898647883941138e-09  -2.4816731160466425e-09  -3.9000946148443285e-13  -1.9369673157889004e-19  -1.5060615759088264e-18  1.2833941925860028e-16  2.0971206757046421e-21  3.3791023141366130e-06  -1.0102060405729549e-12  -1.4076321001481074e-18  1.9179296831628532e-06  5.5132210108206213e-20  -2.4926004371733323e-10  1.0767092740176553e-13  4.3116159425766694e-09  -1.125