<?xml version="1.0"?>
<VTKFile type="UnstructuredGrid"  version="0.1"  >
<UnstructuredGrid>
<Piece  NumberOfPoints="3002" NumberOfCells="5870">
<Points>
<DataArray  type="Float64"  NumberOfComponents="3"  format="ascii">323455.6100285493 6048753.88242996 0  323455.6100285493 5954782.59950515 0  405920.1480513444 5954782.59950515 0  405920.1480513444 6048753.88242996 0  405920.1480513444 6001768.240967555 0  323455.6100285493 6001768.240967555 0  364687.8790399469 5954782.59950515 0  364687.8790399469 6048753.88242996 0  364687.8790399469 5996367.117560402 0  323455.6100285493 6025261.061698757 0  382226.6271443229 6022560.499995181 0  405920.1480513444 5978275.420236353 0  323455.6100285493 5978275.420236353 0  353897.8957397301 6022560.499995181 0  344071.7445342481 5954782.59950515 0  385304.0135456456 5954782.59950515 0  405920.1480513444 6025261.061698757 0  354379.8117870975 5975574.858532775 0  381582.8168806895 5978840.396198289 0  384950.2598624413 6001768.240967555 0  344643.0480768835 6003429.02033719 0  344071.7445342481 6048753.88242996 0  385304.0135456456 6048753.88242996 0  339717.0321562298 5986078.187627405 0  337515.036058786 5969821.016310448 0  368062.2614420265 6013076.224998265 0  368062.2614420265 6032044.774992097 0  393987.6142659165 5988729.699941677 0  405920.1480513444 6013514.651333156 0  392856.2821527076 6034589.119828064 0  393514.9611654527 5968369.338068204 0  339399.8087404341 6032061.482581838 0  323455.6100285493 6013514.651333156 0  374995.9462927963 5965504.865595459 0  354379.8117870975 6037976.901948514 0  338123.9088969378 6017031.529131207 0  367397.3120126425 5982072.559192053 0  351882.5752379905 5991998.990225234 0  376945.425450199 5991232.708824487 0  392265.0061656896 6013300.936254065 0  357029.7426706699 6006608.947964352 0  380093.6207558212 6036880.127749795 0  323455.6100285493 5966529.009870751 0  405920.1480513444 6037007.472064359 0  405920.1480513444 5966529.009870751 0  323455.6100285493 6037007.472064359 0  333763.6772813987 6048753.88242996 0  405920.1480513444 5990021.830601954 0  323455.6100285493 5990021.830601954 0  362879.3643765316 5966837.319094267 0  348367.6438548031 5965604.161682394 0  334493.1989038612 5996935.948935225 0  395068.5043068817 6023875.372615605 0  348216.0324377587 6013504.844950221 0  379305.9090074943 6011603.390019651 0  372523.5158233726 6003480.000732267 0  395435.2039568929 5999384.346358113 0  395612.080798495 5954782.59950515 0  333763.6772813987 5954782.59950515 0  395612.080798495 6048753.88242996 0  374995.9462927963 6048753.88242996 0  374995.9462927963 5954782.59950515 0  354379.8117870975 6048753.88242996 0  354379.8117870975 5954782.59950515 0  335074.5981535012 6007206.680367459 0  391925.2695590468 5978591.908877409 0  371969.1707190623 6022560.499995181 0  383872.162544519 5969415.106147043 0  358038.7139835292 5984533.09712744 0  369699.869182786 5973102.2359358 0  369841.9126663716 6041099.453006387 0  343176.7440329155 5994428.220622956 0  362933.5332293962 6024385.235173292 0  330640.1760208776 5984148.625419154 0  348684.7494355051 5983110.856817525 0  399094.9690929834 6007537.420809742 0  345447.6324516311 5974162.84917082 0  332859.7749513451 6039150.972778062 0  344517.044630671 6024057.945416138 0  332973.1214415312 6025037.914505113 0  341428.0126373461 6040493.820728126 0  385874.264691618 5992757.40885039 0  350337.3662538711 6030387.535304286 0  359887.2373602368 6016186.250094838 0  377097.8989316926 6029115.217702097 0  338917.7109078235 5961484.016839475 0  329495.5261590715 5972402.215053552 0  336644.7280634616 5978216.610794215 0  330688.6715098422 5962480.256438018 0  359899.8039476132 6031963.415584587 0  399746.255941904 6030426.523907755 0  385511.6875144855 6030368.508996127 0  387377.735783329 6040763.821024337 0  398832.192399829 5974431.100387635 0  387992.9498994246 5962432.032572681 0  405920.1480513444 5984148.625419153 0  364925.7641745284 6005782.953640081 0  361769.877068089 6041226.651684469 0  398452.9199001931 6040850.732439541 0  398946.6205243983 5962252.502309519 0  362305.5577564609 5975984.89789681 0  356822.8065216601 5998470.186307689 0  386900.7115926162 5984820.732438302 0  329528.0119279922 6032067.230024892 0  331139.6939744562 6013813.572928222 0  398457.5876798834 5982541.698799337 0  405920.1480513444 6019387.856515957 0  398685.5166750694 6017257.578706384 0  348587.9424884976 6042755.309150081 0  369841.9126663716 5960143.732550304 0  380149.979919221 5960143.732550304 0  359533.8454135222 5960172.384722514 0  377147.8814772839 5972649.581024994 0  341756.3455763521 6010124.092444684 0  355615.8176864882 5966311.193813809 0  369144.4338274571 5989807.770003954 0  375185.9047422862 5983510.422041401 0  323455.6100285493 6007641.446150355 0  391856.7960121195 6005888.565703365 0  371978.0245217044 5996361.134308098 0  405920.1480513444 5995895.035784755 0  378877.1880032702 5998073.745937059 0  359056.6617417652 5991643.489540118 0  399278.8743430426 5993436.466134224 0  386116.8775939071 6009922.097099247 0  323455.6100285493 6019387.856515957 0  388994.7833819839 6019826.789191471 0  348897.6207366391 5998116.079250046 0  345456.3301153719 6035064.814295612 0  323455.6100285493 6042880.677247159 0  334124.3013408988 5990072.953472659 0  377097.8989316926 6018059.782440464 0  323455.6100285493 5995895.035784755 0  342871.8474798963 5980154.238874755 0  373596.9793292385 6035659.183886081 0  380149.979919221 6048753.88242996 0  376327.9292813152 6042294.581731233 0  329163.3548105369 6004704.843558955 0  350303.9432136903 6007093.032074522 0  383982.6552804571 6015912.664375832 0  345515.490569988 5988567.439252969 0  379019.812877927 6004678.052169549 0  365541.9137639466 6018750.691894444 0  349225.7781606728 5954782.59950515 0  352493.3399767278 5960815.406895458 0  363683.8130458911 5986976.225872464 0  386666.791301207 5975084.583584332 0  368937.6553346639 5966171.092344863 0  400003.9882214358 5968352.273777306 0  328776.0063842635 5992958.433193355 0  339958.4428758043 5999572.344589042 0  354577.7732363954 6012555.454074449 0  328609.6436549741 6048753.88242996 0  382053.0280278458 5988228.496807038 0  330708.6817934912 5978212.973348036 0  372084.7734679543 5978495.086505585 0  358568.2738174705 5971419.415228934 0  328931.2672829705 5998832.905089681 0  323455.6100285493 6031134.266881558 0  405920.1480513444 5972402.215053552 0  405920.1480513444 6031134.266881558 0  323455.6100285493 5972402.215053552 0  405920.1480513444 5960655.804687951 0  323455.6100285493 5960655.804687951 0  405920.1480513444 6007641.446150355 0  323455.6100285493 5984148.625419153 0  405920.1480513444 6042880.677247159 0  346648.7613474604 5960023.05127712 0  342415.3891593561 5966358.988213831 0  350507.6510228226 5971111.740321856 0  391773.9667214506 5994456.117700323 0  338875.8905424621 6026088.827345025 0  361429.1735454847 6010511.262533597 0  389395.7028803263 6025805.543023561 0  392895.6464692951 6043315.288173481 0  332846.8296575367 6019296.633131165 0  373337.4404588729 6009693.515402478 0  336544.3064612215 6043648.151399015 0  348610.2411382072 6019567.839754772 0  381943.4597763228 6042183.394750732 0  355630.0631288611 6028071.82801846 0  363941.5238882306 6035967.852698964 0  328179.67203552 6022271.326978176 0  401066.2857736665 5998807.415073814 0  344387.1099621175 6029612.545574771 0  393435.2235156003 5960233.556458537 0  400735.9970493424 6022675.638064924 0  393708.5772019727 6029179.837160029 0  400609.0696943338 5987857.851798974 0  361753.6614662939 6001152.171757337 0  400766.1144249197 6048753.88242996 0  353363.0524357285 6002630.165620538 0  343248.328463803 6018790.640008039 0  356419.8105951758 6043365.392189237 0  390234.385899412 6000759.497967276 0  368336.1168551637 6000220.532318851 0  328609.6436549741 5954782.59950515 0  387520.8298169724 6035372.992507171 0  400588.0280660195 6035823.299583429 0  329021.6598427091 6043194.252697862 0  393371.710206733 5983576.325812268 0  393638.9721728675 5973623.513063556 0  371727.9212466564 6017113.044457142 0  364687.2762977295 5959941.212693035 0  374995.9462927962 5960346.83186599 0  369841.9126663716 5954782.59950515 0  400766.1144249197 5954782.59950515 0  338917.7109078234 5954782.59950515 0  369841.9126663716 6048753.88242996 0  359533.8454135222 5954782.59950515 0  390458.0471720704 6048753.88242996 0  338917.7109078234 6048753.88242996 0  390458.0471720704 5954782.59950515 0  359533.8454135222 6048753.88242996 0  380149.979919221 5954782.59950515 0  349225.7781606728 6048753.88242996 0  339867.4956514095 6005339.817053361 0  333737.9460226952 6002130.523287664 0  336955.8140048417 6012008.440073739 0  377097.8989316926 6023232.32559834 0  371748.9790486701 6028016.629988787 0  338146.5171983215 5993298.164761053 0  355016.8390227688 6017610.913088997 0  393953.1528190996 6018968.416019509 0  335185.8133477239 5965142.63403323 0  328616.6041642396 5967263.80307608 0  380314.9487662361 5965460.362415641 0  354622.8993466098 6032976.142863722 0  328521.4725131759 6027215.026914048 0  334465.0783479523 6034070.534389696 0  328123.6212682287 6009699.206425843 0  381889.5169855529 5973936.741901617 0  359122.3484437474 6036790.002992895 0  386341.6533148278 5979963.279841923 0  400798.2159679119 6012477.871311778 0  388538.3765260249 5967461.292146791 0  340833.8784183678 5975728.708105717 0  355307.6239213505 5988552.151815021 0  362181.4274823388 5981261.937800813 0  353784.0322742948 5981044.538811012 0  358045.1698423899 5978741.391518688 0  328423.7350325213 6036912.015930048 0  366897.6876966125 6027277.723668203 0  347355.1745641421 5978532.307510624 0  376820.5060332146 5979033.270735624 0  349378.1778589479 6024378.632814493 0  327189.2282939323 6016451.253924556 0  338433.8773236172 6036753.902881841 0  350141.9760340559 5987605.90026687 0  363794.7083927878 5991713.491814731 0  350325.1285660182 6035273.515460094 0  382355.9358007369 5983507.499638396 0  327107.0747437811 59811
[...]
<PointData  Scalars="f_58-1"> 
<DataArray  type="Float64"  Name="f_58-1"  format="ascii">1.2692672657420682e-25  7.2307574515979771e-23  2.7883259015880999e-18  -6.6249731974516579e-21  2.8489848946679783e-12  3.5695553597692855e-17  -4.0302808729703622e-17  -2.3476769531277581e-18  -2.0524052304401867e-05  -9.1656924740415380e-19  3.2189464168518689e-10  1.4825203708969845e-12  -9.2215283792090748e-19  1.7530689811578437e-10  8.6090531072297914e-21  4.4680467710408297e-16  -3.9787486297425210e-15  5.8349603290661790e-12  -6.7095914026771972e-08  -3.1883744287620610e-05  4.5200662283738291e-09  -1.5848675316029481e-18  -4.0325332278141097e-19  3.4561050251675060e-13  5.7365190748842833e-18  1.2574004131045985e-05  9.7354457925094059e-12  3.0502188273831337e-08  8.6176498216821567e-14  -8.0541281268388229e-16  2.8796742350607817e-12  4.0223097572079306e-17  -1.8741195551090205e-17  2.5671775559408042e-13  7.0726915976216000e-14  4.4012034847876776e-14  3.8024244756531694e-07  1.7614907253645427e-09  3.0393190902311441e-02  1.5609411304366884e-09  3.1954934680617591e-05  1.3642797310026835e-13  6.3106767382810010e-21  -3.0595528855219330e-18  -5.6348272609894893e-15  -1.0994506127962567e-19  1.4710526618564512e-21  4.2557955711032999e-11  7.4917131746949051e-18  5.4351514200650917e-12  -4.2333869582400778e-17  -4.8032596524310365e-14  1.2932059417435041e-13  -8.9975905914628910e-11  4.6824291769938209e-07  -2.4434525181272603e-03  9.5309587261984454e-08  -1.2118699400366614e-16  -7.0309616648936517e-21  1.0177042386968134e-19  9.1934320184614164e-18  -9.1538822681096562e-17  -6.5765506718406197e-19  -1.0353372178430091e-17  1.8446785914330511e-13  4.1074859716528068e-09  3.0223597333555752e-08  2.7582032941577346e-10  -4.5534499558635217e-09  4.2164532916424873e-09  6.0231653058608575e-15  3.6638470486964171e-11  1.2245149997733330e-09  -1.5482492945785561e-16  4.0850385117451998e-12  4.1769908699375702e-11  4.4596647082842296e-14  8.3289229046947048e-20  2.8481572690196454e-13  1.2420427148281445e-15  -6.2260185366746543e-18  1.5424439885025839e-03  2.6106954892925218e-12  -3.0983224259836096e-09  5.0409492403784538e-12  -2.7503119170280789e-20  1.2521393635125300e-18  -4.7104965930926116e-16  9.6162650390801098e-21  2.8498421397832826e-12  -1.1353606307669899e-16  2.4348170330143714e-12  -5.1622198641556758e-17  5.3274502125804251e-12  6.7666014251199454e-14  1.0507494863640805e-11  -9.1998955387288751e-04  4.2049322797914755e-15  -2.4494873071043394e-18  7.8350238420600842e-16  1.4130227681212059e-09  4.4822415005456174e-06  4.7100338388891000e-07  4.1770628522696726e-18  -1.2822493462506522e-15  7.3657762324050145e-10  4.0690268992475204e-14  2.0788218577622004e-11  -1.7569631042767759e-16  -1.7264133316051736e-14  5.9559450331290050e-14  -8.8010294693503163e-16  2.5507072470017898e-10  4.5537046401135744e-11  4.5775580086756123e-14  9.9586713392831155e-05  7.8920538267072512e-05  4.0481009954349344e-17  3.5995473314618140e-08  4.1296398140131196e-01  1.7615330925884613e-11  3.1217511170723796e-02  -1.7652416188304262e-07  1.9699338676475229e-09  1.9570593788014030e-06  3.3030541550415921e-18  6.4433998452633940e-11  4.2185834155900965e-08  8.6279378083905758e-16  -3.2209228387070038e-21  1.3705731794301626e-13  -3.8670327335500866e-08  -5.1007506724604976e-17  2.9318262720873028e-13  1.1819528435013538e-13  -9.9403930222697362e-18  7.4808162319957055e-17  -1.5288976847549142e-15  -1.0256527596259956e-08  -6.4653944688558078e-10  7.5692600030150282e-11  -2.0497829925143203e-05  8.0849052864769475e-08  -7.0149225372536761e-20  2.1842584017579521e-18  -5.1142601461381822e-07  1.1341582509068446e-08  6.2539034026304010e-12  6.4832085175246438e-15  9.2886312174497521e-16  2.7074701079369571e-10  2.5037524869676249e-07  -7.5087534546349314e-23  2.2946771938053911e-05  1.2911537912473489e-17  -4.3962452233863062e-08  9.5159870701639414e-14  2.6627642319745950e-16  -3.4437160675249249e-20  1.4580269416470096e-13  -2.0562969978995152e-16  -8.2490958484201965e-20  -7.3849088098969487e-17  2.0561604722245370e-24  1.6011932977287008e-12  -1.3970178304897496e-17  -3.6987980062614281e-20  -7.5557037030756212e-18  2.8637259856719707e-17  4.6922401155805482e-14  -1.9961074431948968e-07  3.5589285400346222e-15  3.2569399434154754e-06  1.3762984663006826e-13  -4.8854456785814092e-18  -6.9992494418787848e-16  9.5236786275041909e-05  6.4720638913005162e-20  4.4787541385274017e-11  4.3957205044977202e-17  2.1825272811102873e-11  9.5244926624642257e-14  -2.0680193663957790e-18  -3.2450293752280794e-11  3.1396864264476139e-14  4.7524454278903334e-14  -2.2026878764827323e-14  3.8114971453538485e-15  6.0750907301577943e-10  1.0070829630695062e-03  -7.4225083015649015e-21  3.0335135347175106e-06  4.3054426408489665e-12  -6.0649988573698831e-17  4.1444747101649072e-07  3.0800523932171040e+00  1.1110298027239684e-21  -3.0271773951826975e-15  -9.9940562971255707e-20  -3.9531858654680724e-21  8.0404269431632736e-08  1.6240479689145771e-11  1.1732024408120499e-06  1.4246888860579081e-16  -8.2302439647267081e-15  4.7099655117844003e-17  1.3229450092992004e-17  -4.0463694540435396e-20  3.3198749593504178e-17  -6.1827586500857563e-18  3.7187669699583066e-19  3.8240148980156455e-20  -6.2143825367459285e-17  4.2226074142373092e-18  -1.8073321896203580e-16  -9.3471182714339988e-18  1.5647445358023927e-10  1.1251671978506521e-12  3.9400072988889339e-13  3.0731784605254943e-09  4.1787607020980183e-11  7.6723358943667874e-12  7.5540548067021683e-09  2.2426288322850070e-11  1.1449467650833048e-18  3.3445212957442126e-20  6.2864837206932205e-12  1.6831795291430137e-12  7.0841089617276376e-18  1.2409051472565143e-17  8.2354136957673818e-16  -1.1867877834702527e-09  1.3598045486826267e-13  3.5340146386100789e-08  -7.2643809871282982e-12  7.1375232765023296e-12  -1.4633780991855424e-15  9.0730240542792206e-10  1.1311367595056988e-08  -5.5668110430239117e-13  6.2156455209903302e-10  1.0992658265131763e-19  3.0139971203989079e-10  2.8357030148926518e-13  7.3091966782158558e-07  1.5367557074396026e-11  3.5643403599797305e-17  6.4598458624733763e-18  1.5637174805873784e-10  -9.3221926378327636e-06  -2.8412430451424981e-15  -8.4657811256019094e-07  -5.8504477490256908e-18  1.0137947594302462e-14  4.8012498552544348e-16  1.6127392115995801e-02  2.1819414410638653e-10  1.1832791351931531e-10  1.8878525435392032e-08  2.6839181074058861e-16  -2.8094481689163319e-16  4.2298046091614193e-13  1.0014483943411856e-18  4.5720018496016337e-18  3.1022576732132448e-10  -1.1994502470466581e-06  6.5767909982016068e-17  -7.9490373560789642e-05  2.6381135003034351e-14  1.8419787525830380e-09  4.6222131435771923e-06  4.0722090366100276e-04  2.7566865176631020e-09  7.3538094337995477e-16  -8.3424832385897843e-11  3.6082205883983176e-10  2.5646019177696236e-09  2.1980032685126167e-09  3.2853292075194839e-05  5.2201362434190157e-13  1.7722381119413127e-11  5.1477824210212248e-12  1.3431884679182358e-07  7.1318893446763227e-07  -3.7759185938741441e-06  -1.9334501270312566e-17  5.3655069817572460e-10  -6.3337999629097293e-19  1.0803709747994730e-15  2.5002959063921230e-09  1.1593135537496365e-11  2.8434236347278038e-10  1.9906311167642575e-18  5.8260139173106708e-11  3.3398462807745782e-12  1.9253965937831826e-04  1.0765343172018051e-14  -2.5334794812116557e-20  -9.8493397451101150e-19  -9.8144757182414645e-07  -2.4643247128618361e-16  3.6799113124146228e-14  1.2603592145996585e-20  1.2779799611211358e-11  -9.1160287895554384e-20  -7.9883544032739956e-19  3.8985134755017606e-21  3.5523312806974634e-02  1.0310991812067138e-16  3.6293062859157313e-04  -1.2004801762414749e-16  1.1578672915100352e-20  1.1599590296186463e-15  2.7074388607613877e-13  2.0247271322446350e-13  -1.6051048348143959e-15  2.9524574790482025e-10  9.0612076160411542e-14  -9.5678264324835532e-16  1.8704544003947972e-17  -2.9186378831147756e-13  6.1931865695625546e-11  2.3614864543306463e-05  1.4610992978937018e-04  7.6034658594636540e-18  7.3551314255459213e-11  -4.4498030327078590e-15  9.1919993690179549e-22  -1.3850648575125872e-19  -9.7282597614421023e-14  2.6912830309913749e-12  -2.6216866064804734e-13  3.0592154873392077e-13  -2.6979405266350212e-15  -2.4961528658381213e-15  1.4025656302944263e-16  -7.7252221518560706e-04  2.1476440015804397e-11  3.5931801256056155e-14  1.1519488128329150e-08  -5.5948495961437653e-06  1.6926798197342545e-03  -3.9400717085655751e-04  4.8459516323409420e-03  2.8945453413026234e-16  -1.0134743085210284e-08  2.9931426894345962e-11  4.2023693152878970e-14  7.6609860854179963e-12  -5.4109625535621504e-12  -1.0937016164431501e-22  2.4940591618946525e-20  3.8571192035848827e-08  2.5479114215026753e-16  2.6395464041497904e-14  9.0372896160045556e-08  -1.2243462305220567e-15  1.5489959236254542e-09  -1.0515664407294663e-16  3.1531552820100075e-09  4.2936641963263188e-09  -1.0732762437657148e-18  1.6119283810311323e-19  1.1017127657570590e-05  -7.2179873109494400e-09  3.1593491894580311e-13  -5.4442398775236379e-13  -5.7939183437030474e-14  2.9073877862940493e-21  -7.6349011339054551e-18  -2.9888815684027209e-17  1.4839338523306737e-03  3.9908815304539213e-10  -9.0824705477754249e-17  -5.0636217395615254e-16  8.7734894128616650e-14  -1.3348037527720180e-13  -1.0589213053701728e-15  -1.1310980270751822e-15  -2.9699726261674358e-09  -4.6324018897797551e-10  1.0389758039135761e-12  -1.3342897234717606e-17  5.3962548387517017e-13  5.2391325889015215e-11  -1.5442799749357621e-17  1.1026383029302819e-12  -1.2602651665903340e-06  -8.7549910759267640e-12  -1.6972542441090537e-13  -1.9745053864803892e-15  1.4545437111101196e-16  4.4706958899576967e-22  -1.0060206255553097e-14  -1.0271744839220434e-07  2.8431590999576349e-12  2.0875607535661650e-14  3.1643698469620467e-11  2.3776216412566060e-13  4.4889052189556796e-13  2.3611018257111511e-10  3.7018162132733509e-11  6.8542185921637931e-17  6.7448061630300906e-14  -1.5085541243474472e-08  -8.0303362041191285e-10  1.2067641648411817e-09  -1.2988861839747218e-08  -1.0382076675300395e-07  1.4791304602817057e-09  1.1144535571951194e-09  -1.7202043882501726e-15  5.6173310174950968e-15  4.0380246078232391e-06  -1.1514731265899860e-19  1.9241062016684191e-04  2.3382604075803548e+00  1.8811414492415605e-19  1.3950714925865504e-15  1.7197865567506684e-08  3.2540172360721549e-12  7.2986735114864538e-06  3.9556452787110774e-15  -5.1649712176204165e-18  2.7992037084356341e-17  2.2589199346309064e-17  -3.1273475321607908e-17  3.0013764134094915e-10  8.5943179921898627e-09  1.5027114525085557e-12  7.4167895251366020e-12  -8.6003828265443396e-18  8.5967174070292996e-07  1.2799034956962097e-06  -1.1237669505187262e-07  6.5927293177664766e-11  -5.8304725855449741e-15  9.6703724624689775e-11  7.2236474992825662e-07  1.1224805966957201e-08  3.2095734083599003e-06  1.3078268386464165e-10  1.5122959595906791e-11  8.8026037634114107e-01  -1.2843748635404976e-19  -1.9378807506158895e-12  1.9462201010809499e-10  4.4003958960670401e-09  -1.6543629168111471e-15  1.2769242580163305e-13  3.5544822862251010e-18  -6.9500239867431026e-04  -7.9952871944578803e-09  3.8381698896730105e-14  6.5923514648622969e-08  1.1169971281785917e-11  -9.2139543236017332e-21  6.1731376441739284e-10  1.3865740625316368e-12  4.0020700098300128e-06  -3.7561511908044961e-16  -8.1329819298887362e-16  1.3952269086791749e-13  5.0913695342305772e-12  1.0642064306151046e-19  -2.3405312625093835e-14  2.1290329142595776e-16  5.4528699978439264e-10  3.4798148589989108e-11  -3.9759351023870151e-08  -1.5810388935973885e-15  1.7970236623930055e-10  5.0413080724836804e-11  4.6265969382882823e-19  2.2029051711604516e-02  1.3299854532488557e-16  -1.6392744837298567e-12  -5.0479836411706236e-13  2.8950795259816907e-09  3.5742496226199344e-08  -4.8992802557942859e-17  3.5706809703156223e-10  5.2553255196415962e-03  1.6670176760125602e-14  1.5210034350398695e-11  2.1669555211759626e-13  1.3129640003944904e-14  1.6939459476168181e-16  6.5042189624201938e-13  -7.0474973102230310e-07  2.4515122572432797e+00  4.4462445238483716e-11  5.3934661774452140e-12  7.7291880757299981e-21  1.7210874185967535e-10  3.2787767658122306e-11  1.6112511175744541e-07  1.8491497481391291e-16  4.1517190537671614e-16  -9.8503044836423459e-18  3.8254445784822632e-08  3.5086164234112806e-19  7.6326612993381756e-19  -8.0455642578146222e-19  9.8925638445841649e-18  5.3344148938901453e-09  -4.2141894171683519e-10  6.5968532824861962e-08  7.8184978458802312e-17  7.1776409832697729e-09  2.2516872959869809e-14  -9.9910878842663272e-12  9.1100229401570610e-16  6.3904503225875453e-06  1.7006300996831685e-07  5.3353852935456567e-11  -6.8974583522737164e-13  5.8146154985117778e-13  5.4633882120318837e-11  9.4091820976406719e-03  -1.4643401558680449e-05  1.6301078510665676e-05  -6.0423106354598748e-10  7.5366062943602844e-16  -9.7026994379586023e-06  1.1116447509805177e-17  6.5472105502167859e-17  -3.3750826033041735e-16  3.4232466139528156e-17  -2.3553219408823294e-16  -1.9405574583714071e-15  -1.4437868504297376e-21  1.1876868477855775e-08  -1.0355558001521043e-18  -8.2595817621557121e-19  9.6897430928844696e-18  2.6159031974143494e-15  3.7658181121898870e-15  -1.2697677630698950e-11  3.8456824374317367e-23  -3.8941274250303172e-22  -5.2670431969220735e-16  -7.2442292097482192e-23  -3.7569820502225925e-08  -5.3718386819025031e-08  1.6588990127678131e-06  9.5173870160952399e-05  1.4001159448992312e-14  7.9962071724109651e-06  -1.5024173472834833e-20  3.3394671330188019e-09  3.6736398829564162e-13  9.4429299293960457e-12  -1.8549703734467925e-11  3.0119227302380141e-12  -3.6999178104992281e-09  -5.8374608616878367e-20  -2.2476861458602928e-19  1.9385985152852007e-17  1.6131713193371877e-18  -2.8980240116233950e-17  1.7514561458243615e-14  -1.3032587853276601e-09  1.5838706742316521e-11  6.4968781058749348e-19  -9.7654336866689452e-12  1.4918221298012750e-10  2.1395134184398565e-10  -1.7183872927120129e-06  4.0870693692995254e-11  4.0345715632270333e-17  -5.0332568930709527e-16  3.1338576984160716e-16  -2.6849408940739642e-14  -2.2535377919480157e-14  -8.0940467125536632e-17  -2.8752612506250483e-18  -4.7937942963054671e-15  5.7294930911123551e-13  -2.3164007105245294e-14  9.8841115016703831e-18  1.1144624626921491e-01  6.3667716560502786e-03  -1.0603001874813664e-11  1.1595179727408616e-20  -7.9921502835223173e-18  7.1450718586617762e-17  -2.1294936307721789e-17  -1.2243364414393234e-20  6.9959266647821251e-17  1.0118131715193561e-20  7.6322853422671876e-04  -3.7266683449158891e-04  -5.5496895173973449e-17  6.7846233834065916e-14  4.6083911156824897e-13  1.9397971476975004e-17  1.5112681478361016e-18  3.4889598079019952e-13  -1.4030127751751751e-08  -2.3205852973911264e-09  1.3890832004642143e-06  3.7472202509341230e-11  1.2197152257192809e-06  1.2461543530736273e-04  4.7075321562309006e-05  -3.0614983880669982e-13  1.5360974164290887e-13  1.2291491072503539e-14  -1.3320773346362332e-15  -2.1702447286466607e-16  4.0873087981777536e-18  4.7807169274762499e-13  4.0438989962792584e-18  2.1717388750099016e-19  -6.6455477975371215e-14  5.9205638769995539e-16  6.2880423808604970e-16  -1.7372572836257197e-22  -2.7036400674666431e-20  -7.3008629883788905e-13  2.6429966884871590e-18  -6.9292439038561039e-12  1.3418235770185832e-15  1.3741248649140715e-14  -1.0698490383421029e-15  3.3633575974615064e-08  -1.5362292882759663e-12  -8.2876930764595472e-12  3.4501184825935927e-13  -1.0056554832787915e-18  5.3142313789543921e-19  1.8654009820533108e-18  1.3566319535662159e-21  7.6517981440302564e-19  -3.7966223502218896e-20  1.9391435668539767e-13  -1.7705317071816109e-11  1.4515966336482827e-14  3.3425633473077733e-14  1.7588731086040100e-10  -6.1110080091745738e-10  -1.5490483622932848e-12  -2.0924347582693114e-12  -5.0972810859107677e-11  9.4504238144652440e-13  4.5909946243817716e-12  7.0048371416120392e-16  2.8813042965800314e-17  7.9527147292026460e-16  1.5543484351257581e-14  -1.7924949405639203e-15  8.3123297958957764e-17  1.7052857807383276e-04  -5.2195238833462231e-12  -1.2300971498742960e-16  2.3325049820104365e-06  9.9440737309633238e-15  2.7117728241298156e-12  -1.4442088890934220e-14  2.2751283400175437e-10  -6.3501583891146778e-05  -6.8588397034980399e-22  8.6277548799132129e-22  3.1293290269367556e-06  -1.8756011875036544e-20  -1.8296710543111357e-16  1.1190672826419521e-04  -2.1137546550999906e-03  7.0093659270873505e-04  -8.9554180511591133e-18  7.0706005465645974e-16  1.6544995877269493e-02  -1.1032327671410374e-09  -7.6970536910294071e-19  -7.1622078998088826e-04  1.2317407326813747e-17  1.8359108850328908e-21  9.3114007922182789e-14  -7.5015369611710784e-20  -2.6676270408512771e-16  7.5726310515752526e-13  -4.7813916426314959e-17  -1.8996241416350330e-12  2.7641056195379193e-17  -5.6142171202442345e-05  2.9461940391572028e-11  1.8849621000600575e-03  2.6015368728942894e-10  3.8999623814793052e-17  -1.9429861703495417e-05  7.0446199887411646e-14  -2.6233824768790486e-11  -1.4314643605789010e-17  2.5664296165227871e-12  7.8501715783381011e-18  -1.7060917776488177e-18  -3.0499578787605591e-11  1.4895743656097945e-11  -3.1722424006497386e-17  -5.2742958248043734e-10  6.9798283034287079e-07  -8.0410690915562044e-09  2.0481893591745275e-06  -1.4556889937873259e-16  -2.2716170462229291e-14  5.4539907336148925e-12  3.8428748917591180e-12  -7.2405562756140164e-07  6.4900257455358551e-16  -1.8739147163027566e-16  4.5693030684273545e-16  1.5732975166389027e-15  8.7560728878385211e-14  1.0839705311443721e-16  2.7336964302622563e-18  2.5148866864421677e+00  3.8409332270285760e-05  -1.2791497637138113e-06  -4.5810390416719408e-08  -1.3189607626859517e-07  1.2932515863330123e-05  2.7785119287340405e-07  -8.6099794917822362e-12  1.3987374472319840e-12  6.1786378131950110e-07  2.6787450271072088e-18  9.4906986988668244e-12  -1.6003948336712363e-16  -9.6323305207570569e-11  1.8027026977978569e-11  -1.3601463080969999e-10  7.6483680614038202e-07  -1.7294730014847020e-17  -3.6959244251935107e-18  1.2681353634213635e-10  8.3355042658282592e-12  1.1615761944501755e-13  2.3028641702553654e-18  -3.2698220384407303e-16  3.2424612074912330e-09  1.7247735812422911e-09  2.0194583917941709e-19  3.5553616135200878e-18  1.5634366782400600e-15  -1.1306838833983450e-11  -1.0210154819499651e-12  4.4306861698845477e-12  6.4282259768224874e-12  5.1298260793509426e-09  3.8005662056741562e-11  -3.1035667341777990e-08  1.2481351263005592e-20  -1.3660121737024283e-18  -1.0029839717841462e-17  1.1386058677850821e-11  1.8880436501018527e-13  3.4994806573816972e-18  -7.9991166017488177e-21  4.0926477756242064e-21  3.5021078451354073e-21  1.2370901257495875e-10  4.3620763491001267e-12  -4.2017546904409829e-13  6.0344969620847688e-09  -6.6022855710867599e-10  -3.6856157277126188e-10  2.4344588849534412e-17  -1.2863978336707804e-10  -9.0184351100663447e-15  -1.2824894462863325e-08  -5.0534714805900710e-19  -4.9973453731048436e-15  -1.2721526748383322e-17  -8.7711452983040759e-15  8.8101131964666172e-15  1.9546234222076644e-14  3.9815151219472602e-13  6.0754738614107602e-14  -4.3394266142863242e-13  1.7473506461467933e-13  3.6247516102022538e-12  -6.6929988806575953e-20  1.0037767532792980e-22  -3.9600462475261182e-17  -1.3825374273682583e-16  -7.4480522204380422e-20  7.1288558685341012e-17  -6.4223271398031018e-19  -9.3511106421960760e-19  4.1213452761920195e-17  -9.1173620147453140e-17  -1.6514705734284539e-16  4.2784143898226614e-17  -2.2098302946275733e-17  -9.5267267143139210e-22  1.2651595705800737e-17  -3.4469774601362084e-20  -1.6092810750439367e-21  4.9365783041621889e-18  3.3658162417198309e-02  2.9576053783598776e-09  8.0366257208066009e-09  1.2577822042609938e-10  -4.8355086458734235e-19  6.0576611411031914e-18  1.6799651144120167e-16  -5.0239142225747435e-21  2.7225535566987809e-07  1.6572893863366692e-12  -9.4660598598510928e-19  -1.3885303654365026e-07  -1.3973069751308100e-19  7.5650227892436178e-10  2.4435272421554975e-14  8.4750827928748026e-08  -2.7135156313883472e-16  1.16