<?xml version="1.0"?>
<VTKFile type="UnstructuredGrid"  version="0.1"  >
<UnstructuredGrid>
<Piece  NumberOfPoints="3002" NumberOfCells="5870">
<Points>
<DataArray  type="Float64"  NumberOfComponents="3"  format="ascii">323455.6100285493 6048753.88242996 0  323455.6100285493 5954782.59950515 0  405920.1480513444 5954782.59950515 0  405920.1480513444 6048753.88242996 0  405920.1480513444 6001768.240967555 0  323455.6100285493 6001768.240967555 0  364687.8790399469 5954782.59950515 0  364687.8790399469 6048753.88242996 0  364687.8790399469 5996367.117560402 0  323455.6100285493 6025261.061698757 0  382226.6271443229 6022560.499995181 0  405920.1480513444 5978275.420236353 0  323455.6100285493 5978275.420236353 0  353897.8957397301 6022560.499995181 0  344071.7445342481 5954782.59950515 0  385304.0135456456 5954782.59950515 0  405920.1480513444 6025261.061698757 0  354379.8117870975 5975574.858532775 0  381582.8168806895 5978840.396198289 0  384950.2598624413 6001768.240967555 0  344643.0480768835 6003429.02033719 0  344071.7445342481 6048753.88242996 0  385304.0135456456 6048753.88242996 0  339717.0321562298 5986078.187627405 0  337515.036058786 5969821.016310448 0  368062.2614420265 6013076.224998265 0  368062.2614420265 6032044.774992097 0  393987.6142659165 5988729.699941677 0  405920.1480513444 6013514.651333156 0  392856.2821527076 6034589.119828064 0  393514.9611654527 5968369.338068204 0  339399.8087404341 6032061.482581838 0  323455.6100285493 6013514.651333156 0  374995.9462927963 5965504.865595459 0  354379.8117870975 6037976.901948514 0  338123.9088969378 6017031.529131207 0  367397.3120126425 5982072.559192053 0  351882.5752379905 5991998.990225234 0  376945.425450199 5991232.708824487 0  392265.0061656896 6013300.936254065 0  357029.7426706699 6006608.947964352 0  380093.6207558212 6036880.127749795 0  323455.6100285493 5966529.009870751 0  405920.1480513444 6037007.472064359 0  405920.1480513444 5966529.009870751 0  323455.6100285493 6037007.472064359 0  333763.6772813987 6048753.88242996 0  405920.1480513444 5990021.830601954 0  323455.6100285493 5990021.830601954 0  362879.3643765316 5966837.319094267 0  348367.6438548031 5965604.161682394 0  334493.1989038612 5996935.948935225 0  395068.5043068817 6023875.372615605 0  348216.0324377587 6013504.844950221 0  379305.9090074943 6011603.390019651 0  372523.5158233726 6003480.000732267 0  395435.2039568929 5999384.346358113 0  395612.080798495 5954782.59950515 0  333763.6772813987 5954782.59950515 0  395612.080798495 6048753.88242996 0  374995.9462927963 6048753.88242996 0  374995.9462927963 5954782.59950515 0  354379.8117870975 6048753.88242996 0  354379.8117870975 5954782.59950515 0  335074.5981535012 6007206.680367459 0  391925.2695590468 5978591.908877409 0  371969.1707190623 6022560.499995181 0  383872.162544519 5969415.106147043 0  358038.7139835292 5984533.09712744 0  369699.869182786 5973102.2359358 0  369841.9126663716 6041099.453006387 0  343176.7440329155 5994428.220622956 0  362933.5332293962 6024385.235173292 0  330640.1760208776 5984148.625419154 0  348684.7494355051 5983110.856817525 0  399094.9690929834 6007537.420809742 0  345447.6324516311 5974162.84917082 0  332859.7749513451 6039150.972778062 0  344517.044630671 6024057.945416138 0  332973.1214415312 6025037.914505113 0  341428.0126373461 6040493.820728126 0  385874.264691618 5992757.40885039 0  350337.3662538711 6030387.535304286 0  359887.2373602368 6016186.250094838 0  377097.8989316926 6029115.217702097 0  338917.7109078235 5961484.016839475 0  329495.5261590715 5972402.215053552 0  336644.7280634616 5978216.610794215 0  330688.6715098422 5962480.256438018 0  359899.8039476132 6031963.415584587 0  399746.255941904 6030426.523907755 0  385511.6875144855 6030368.508996127 0  387377.735783329 6040763.821024337 0  398832.192399829 5974431.100387635 0  387992.9498994246 5962432.032572681 0  405920.1480513444 5984148.625419153 0  364925.7641745284 6005782.953640081 0  361769.877068089 6041226.651684469 0  398452.9199001931 6040850.732439541 0  398946.6205243983 5962252.502309519 0  362305.5577564609 5975984.89789681 0  356822.8065216601 5998470.186307689 0  386900.7115926162 5984820.732438302 0  329528.0119279922 6032067.230024892 0  331139.6939744562 6013813.572928222 0  398457.5876798834 5982541.698799337 0  405920.1480513444 6019387.856515957 0  398685.5166750694 6017257.578706384 0  348587.9424884976 6042755.309150081 0  369841.9126663716 5960143.732550304 0  380149.979919221 5960143.732550304 0  359533.8454135222 5960172.384722514 0  377147.8814772839 5972649.581024994 0  341756.3455763521 6010124.092444684 0  355615.8176864882 5966311.193813809 0  369144.4338274571 5989807.770003954 0  375185.9047422862 5983510.422041401 0  323455.6100285493 6007641.446150355 0  391856.7960121195 6005888.565703365 0  371978.0245217044 5996361.134308098 0  405920.1480513444 5995895.035784755 0  378877.1880032702 5998073.745937059 0  359056.6617417652 5991643.489540118 0  399278.8743430426 5993436.466134224 0  386116.8775939071 6009922.097099247 0  323455.6100285493 6019387.856515957 0  388994.7833819839 6019826.789191471 0  348897.6207366391 5998116.079250046 0  345456.3301153719 6035064.814295612 0  323455.6100285493 6042880.677247159 0  334124.3013408988 5990072.953472659 0  377097.8989316926 6018059.782440464 0  323455.6100285493 5995895.035784755 0  342871.8474798963 5980154.238874755 0  373596.9793292385 6035659.183886081 0  380149.979919221 6048753.88242996 0  376327.9292813152 6042294.581731233 0  329163.3548105369 6004704.843558955 0  350303.9432136903 6007093.032074522 0  383982.6552804571 6015912.664375832 0  345515.490569988 5988567.439252969 0  379019.812877927 6004678.052169549 0  365541.9137639466 6018750.691894444 0  349225.7781606728 5954782.59950515 0  352493.3399767278 5960815.406895458 0  363683.8130458911 5986976.225872464 0  386666.791301207 5975084.583584332 0  368937.6553346639 5966171.092344863 0  400003.9882214358 5968352.273777306 0  328776.0063842635 5992958.433193355 0  339958.4428758043 5999572.344589042 0  354577.7732363954 6012555.454074449 0  328609.6436549741 6048753.88242996 0  382053.0280278458 5988228.496807038 0  330708.6817934912 5978212.973348036 0  372084.7734679543 5978495.086505585 0  358568.2738174705 5971419.415228934 0  328931.2672829705 5998832.905089681 0  323455.6100285493 6031134.266881558 0  405920.1480513444 5972402.215053552 0  405920.1480513444 6031134.266881558 0  323455.6100285493 5972402.215053552 0  405920.1480513444 5960655.804687951 0  323455.6100285493 5960655.804687951 0  405920.1480513444 6007641.446150355 0  323455.6100285493 5984148.625419153 0  405920.1480513444 6042880.677247159 0  346648.7613474604 5960023.05127712 0  342415.3891593561 5966358.988213831 0  350507.6510228226 5971111.740321856 0  391773.9667214506 5994456.117700323 0  338875.8905424621 6026088.827345025 0  361429.1735454847 6010511.262533597 0  389395.7028803263 6025805.543023561 0  392895.6464692951 6043315.288173481 0  332846.8296575367 6019296.633131165 0  373337.4404588729 6009693.515402478 0  336544.3064612215 6043648.151399015 0  348610.2411382072 6019567.839754772 0  381943.4597763228 6042183.394750732 0  355630.0631288611 6028071.82801846 0  363941.5238882306 6035967.852698964 0  328179.67203552 6022271.326978176 0  401066.2857736665 5998807.415073814 0  344387.1099621175 6029612.545574771 0  393435.2235156003 5960233.556458537 0  400735.9970493424 6022675.638064924 0  393708.5772019727 6029179.837160029 0  400609.0696943338 5987857.851798974 0  361753.6614662939 6001152.171757337 0  400766.1144249197 6048753.88242996 0  353363.0524357285 6002630.165620538 0  343248.328463803 6018790.640008039 0  356419.8105951758 6043365.392189237 0  390234.385899412 6000759.497967276 0  368336.1168551637 6000220.532318851 0  328609.6436549741 5954782.59950515 0  387520.8298169724 6035372.992507171 0  400588.0280660195 6035823.299583429 0  329021.6598427091 6043194.252697862 0  393371.710206733 5983576.325812268 0  393638.9721728675 5973623.513063556 0  371727.9212466564 6017113.044457142 0  364687.2762977295 5959941.212693035 0  374995.9462927962 5960346.83186599 0  369841.9126663716 5954782.59950515 0  400766.1144249197 5954782.59950515 0  338917.7109078234 5954782.59950515 0  369841.9126663716 6048753.88242996 0  359533.8454135222 5954782.59950515 0  390458.0471720704 6048753.88242996 0  338917.7109078234 6048753.88242996 0  390458.0471720704 5954782.59950515 0  359533.8454135222 6048753.88242996 0  380149.979919221 5954782.59950515 0  349225.7781606728 6048753.88242996 0  339867.4956514095 6005339.817053361 0  333737.9460226952 6002130.523287664 0  336955.8140048417 6012008.440073739 0  377097.8989316926 6023232.32559834 0  371748.9790486701 6028016.629988787 0  338146.5171983215 5993298.164761053 0  355016.8390227688 6017610.913088997 0  393953.1528190996 6018968.416019509 0  335185.8133477239 5965142.63403323 0  328616.6041642396 5967263.80307608 0  380314.9487662361 5965460.362415641 0  354622.8993466098 6032976.142863722 0  328521.4725131759 6027215.026914048 0  334465.0783479523 6034070.534389696 0  328123.6212682287 6009699.206425843 0  381889.5169855529 5973936.741901617 0  359122.3484437474 6036790.002992895 0  386341.6533148278 5979963.279841923 0  400798.2159679119 6012477.871311778 0  388538.3765260249 5967461.292146791 0  340833.8784183678 5975728.708105717 0  355307.6239213505 5988552.151815021 0  362181.4274823388 5981261.937800813 0  353784.0322742948 5981044.538811012 0  358045.1698423899 5978741.391518688 0  328423.7350325213 6036912.015930048 0  366897.6876966125 6027277.723668203 0  347355.1745641421 5978532.307510624 0  376820.5060332146 5979033.270735624 0  349378.1778589479 6024378.632814493 0  327189.2282939323 6016451.253924556 0  338433.8773236172 6036753.902881841 0  350141.9760340559 5987605.90026687 0  363794.7083927878 5991713.491814731 0  350325.1285660182 6035273.515460094 0  382355.9358007369 5983507.499638396 0  327107.0747437811 59811
[...]
<PointData  Scalars="f_78871-1"> 
<DataArray  type="Float64"  Name="f_78871-1"  format="ascii">1.3084751328911290e-22  -9.3628590258018609e-22  7.6433992330656536e-18  3.4386149382582313e-21  1.4124586381927501e-10  1.2372961054087708e-17  9.3448329016360189e-15  -4.1531337361416971e-17  -5.4029259761623552e-03  -3.8949120115194472e-18  -6.8588080514204170e-11  1.4686251707199119e-12  -1.3053804448458348e-18  1.1792020082246375e-08  1.0340453846611876e-18  7.2923400646035127e-15  5.5795584436786824e-14  2.7606356804174281e-12  9.8700024290276147e-06  -2.1908257177364984e-06  -7.6878736384127441e-09  -3.2469375466094447e-18  2.3556932136342729e-19  -7.5954568421079572e-13  -4.2534987271240245e-16  3.5039954135585347e-05  4.2411020449581438e-11  1.2039321016261525e-06  6.5264299956850096e-12  7.6728160075268870e-16  7.9426736472269808e-11  2.0832022895628817e-16  1.5185704992600537e-16  6.7891214229345726e-11  1.7568266784365273e-12  7.6736563878040056e-12  -5.4152280070463531e-07  6.1332870454814897e-07  3.8806511232397498e+00  3.3937042342047741e-08  3.1278661280036352e-04  2.0773847166866416e-13  -9.9883178916216657e-20  5.2411332692999247e-19  1.8480201131792672e-13  -2.9467695888301272e-19  -1.5162536858116441e-20  9.5098639921055979e-11  -2.0330995670429161e-16  -6.0807882141425955e-12  1.0199330592532009e-14  9.9364764887387487e-12  -4.3393455735801018e-14  1.2366725949362971e-09  2.9767977694892448e-07  -5.3447893936588216e-03  6.3732091909016718e-07  -2.6044925600104275e-16  8.2889483914069595e-20  7.8873134578855024e-20  -1.6466842295831856e-17  -3.2580662336777518e-16  7.3314949533752490e-18  3.2391935807148720e-17  4.8701963839155215e-11  -9.5446102357116972e-10  1.0999256572997068e-08  4.6909246762082727e-10  -1.4156119896588871e-08  5.1488322498988665e-08  1.7022505745546981e-13  5.8977026487639048e-09  -5.7571509757491318e-10  2.7454804623686946e-16  1.5935416197077381e-10  2.6629455678268436e-09  1.9853073331415096e-12  4.9525466940338663e-19  1.3453034792069404e-11  5.6469979518259895e-14  2.7203758316055389e-17  2.5507689117160667e-02  6.0380995666058342e-11  -4.3440709710694645e-08  5.2942680538995239e-11  3.5257349188090331e-18  -3.1601330994754026e-17  5.1959802549940595e-14  -4.1691144049056324e-20  1.5640623137112794e-11  1.7815392649518894e-16  5.2641557522473773e-13  -3.9162020504660882e-17  1.1229907897734081e-11  4.3712110035853171e-12  3.5860782623849445e-11  4.7222224853995887e-01  1.0449419845301141e-13  -3.7562178075818206e-19  7.2781935411508968e-14  4.3770537907198738e-09  -3.5488046237603640e-05  -4.0054541901344945e-06  1.2463902971158548e-17  3.5453192491882898e-14  7.1620750254808436e-09  3.6585815109616871e-13  -7.2946919988385777e-12  -3.9996449988557767e-16  1.8834850395889768e-12  3.8630584766813098e-13  1.0517417360666470e-13  5.3682424370281889e-08  1.3147496287725735e-10  6.5532899090420306e-13  4.6109570662194593e-03  5.1386197564227889e-04  -5.1327814478456685e-17  5.1666128447733305e-07  8.2937727858233234e+00  8.7844612852056900e-12  5.2741623447461194e-01  2.7275794115167492e-04  4.4279378412189291e-08  5.5664126965570058e-07  -2.0542082970187509e-17  1.8807762968069316e-10  1.4211476869676886e-06  4.7405350715981802e-14  -8.1195457043588746e-21  3.5500448882408300e-12  1.0616980228370070e-06  1.9475645852103919e-16  4.4963351888191514e-12  3.3323423864210066e-13  3.0798013931138648e-18  -4.9971414427876048e-16  7.3086164823037115e-14  6.0077585060464006e-07  5.0734594775026260e-08  -1.0358455278006566e-10  -5.8164903915522118e-05  -5.6718239604019147e-08  -3.7940721909725396e-18  -1.0448737801205145e-16  1.1041760085361264e-04  2.1892098430798309e-07  4.1180929518358961e-11  4.2084668212978799e-13  2.6334272528805169e-15  -3.7854231061642354e-10  2.4158828663270258e-06  -2.6862072851397961e-22  9.5738168670828124e-03  -5.8249320363112077e-18  5.0364126015715612e-08  5.9704440350752021e-10  5.7381314514989625e-15  2.2290045279290774e-19  2.0985111359258684e-12  9.6766709493571310e-17  6.5675749619687518e-19  -1.3147251872856257e-16  -1.5578689096262855e-21  3.3727113993825269e-11  -5.9962233383160189e-17  -8.7614477800132813e-20  6.5196169530880164e-17  -1.6089237248074531e-16  4.8640091831717305e-14  1.2551779965006739e-05  5.0457439193443651e-14  2.6727270586336709e-04  4.0721418060281327e-12  -9.8812491177776791e-19  1.3147246536156171e-13  3.6988822260526757e-04  -2.3474077746032128e-19  4.4258779415568511e-09  4.9244898955432389e-17  4.2246239804450496e-10  3.9658642204249250e-13  1.5341058058613658e-16  1.4874080285705585e-09  1.3459084648748460e-12  4.8182511165552562e-13  5.9049827267821688e-13  1.0835714699981898e-14  3.2730686433289891e-09  1.5808416399692643e-01  -1.7638349221785214e-21  8.8841565800563274e-05  7.1924247277872914e-12  -2.4560339109377494e-16  3.8368943447481845e-06  9.2644656644852734e+00  -1.1028645283918253e-20  -2.8886569087368286e-16  -2.7705532879159570e-17  4.2042172398231435e-21  4.3798760212929164e-07  1.6528577974463567e-09  1.0947945736986804e-07  8.1965090456448719e-13  9.1405819957116564e-13  -6.4222841634671442e-16  1.5955979880589726e-16  5.8099974513614641e-19  3.8513652199874822e-17  -1.4075767012008629e-16  -1.0841477704386634e-19  1.6198292087451363e-20  4.9654724705051490e-16  -2.1769515510737653e-17  -4.5689988206218290e-16  -2.7076913521888850e-17  -1.2722676927053940e-10  7.3092025296731801e-13  5.6721134339595712e-11  -3.8007819108962315e-10  4.6207584970346948e-11  3.9574122022735357e-11  2.8005397375223443e-07  5.4211180556261399e-11  -1.9968002429759067e-17  -1.4897042344764410e-18  -8.4350768758973898e-13  3.1725007881684839e-11  4.8605187821161224e-17  -4.5336209402772237e-18  1.4131405397889407e-13  2.2872722301130685e-08  1.1420923658306328e-12  -5.7780245766265081e-08  1.7030818467768347e-10  1.8053756037853570e-10  3.0186078069629203e-13  -5.2365413278345636e-08  3.4475655808445736e-08  -2.7922477954571658e-10  1.1500866981115970e-08  3.5179870184465180e-19  6.5172830078650221e-10  1.9508521164112296e-11  1.8043606113245542e-06  5.9301067807508861e-10  -2.6724739940968786e-17  2.1564354545864284e-17  2.0527046246281203e-08  1.8797089523524997e-03  4.5854795142595787e-14  7.8207631187757394e-04  1.0613880372126639e-17  -4.0774635772447491e-14  1.3510378957103110e-15  -1.9091814610907440e-03  2.7999673897398818e-09  -2.0341580361427422e-10  3.3470443224660955e-07  2.7107109374584205e-16  -6.2166537838316454e-16  2.9187742810179285e-12  -3.9846261979016670e-17  -2.6841200709009559e-16  2.9271166710667160e-09  2.4775584119416097e-05  1.0305261294415999e-16  -6.8434884098492314e-06  1.9101104787075965e-12  -1.1653104388452716e-08  7.7045276932160233e-05  1.1985882792931104e+00  7.8176162810948361e-09  1.5151040915299315e-13  2.4992674693386401e-08  2.4258544224249635e-10  4.7534899711443942e-08  2.2559045792496312e-08  3.5072682422102143e-05  -1.7082363762694394e-12  -5.5762199001717420e-11  1.2559462473723236e-10  -2.8357648137075156e-09  -2.4054285063936993e-07  1.2981618192060879e-03  5.1247767585509018e-18  1.0141791578182541e-08  -1.0473407790250904e-18  9.8648646016813736e-14  1.4221875825636979e-08  9.3026300788103364e-12  1.5877712300685374e-09  -5.1809041367727737e-20  -5.6333572990807554e-12  2.1243287279053913e-12  8.2346206215545680e-03  1.0914830021865057e-15  4.6308522769506118e-19  1.1766044719888640e-17  1.2199506166417644e-05  2.3586575238091892e-15  1.5665213044609461e-14  5.6275193919750455e-18  7.7727194794116997e-11  5.5859508157328183e-21  9.4117990590028390e-20  -1.2934736726854788e-19  -2.1354498811297592e-03  1.4019236408244387e-16  1.4698448345138894e-02  2.1822090221939573e-16  -1.1045895776621879e-19  3.4251761523333138e-16  5.4557562475700738e-12  3.8591356151983705e-12  6.3984622117022236e-14  2.6661932185491998e-09  4.3218285128142038e-12  3.7638738672988924e-14  4.7269440285255331e-14  1.0933553870591669e-11  -9.2008337346830416e-08  4.7167127213848054e-04  1.5211311431812529e-03  1.5605828680945084e-16  6.6827023955142806e-10  3.4750997145319578e-13  -8.2902003288401447e-21  -3.1496068260623094e-20  3.6574364665934665e-11  4.0710679881214233e-11  1.3142761845110468e-11  7.4960487866574962e-12  1.1125169631404956e-15  8.3656937434029329e-16  -6.4023093667624608e-16  -4.2259725691855369e-04  1.2815077082092816e-09  4.3577225211797612e-13  -8.2304270905444823e-09  1.3774425679693307e-02  -8.9513544266205081e-04  1.2408241838455092e-01  -8.0632310160826844e-03  4.0873611142071445e-16  -1.1267999427894386e-07  1.8899976122686157e-12  4.4369460459093335e-12  1.5476007935563245e-11  1.1156046498520064e-09  -3.7542110310473554e-22  7.0681186073340623e-20  6.6215049468947029e-07  1.0125758602387699e-12  5.0931808655752705e-13  1.1902194939050917e-05  -1.7863838961672697e-15  9.5886350652870945e-09  2.3235187229042805e-17  2.7276743158586145e-08  3.5431431670656530e-08  7.9415830594907905e-17  3.8383362225199801e-19  3.0450343282241237e-04  2.6617933595928428e-07  7.5850184924747416e-13  1.0941386372681375e-11  1.1259638254131978e-11  -3.5708104300990578e-20  -1.5324382020760108e-17  -2.2477186490576672e-17  3.9267136933857760e-03  2.3753353679082125e-09  3.1236181143308237e-16  -5.3865214581137550e-15  -1.8344383437402324e-13  7.4205141763452564e-12  8.4358944477531251e-14  5.4704715058338990e-14  5.5986435259143461e-07  6.2323565439102066e-07  7.0154727466025271e-12  -3.9740763172189560e-19  -5.2736790203883623e-13  6.8344797843330767e-10  1.3380388212637804e-16  6.6252792502974936e-12  2.9844220778864382e-04  3.7906002967866016e-09  1.8327973782920853e-11  1.4746281487216444e-13  -7.5982084570301433e-16  -2.2344499075105038e-20  -3.6498737105038157e-14  7.9968711760209762e-05  1.3508023343748590e-09  3.2198101021339958e-12  1.1785206498322637e-09  -1.8283309467489721e-12  1.1885725921611556e-11  -2.4726072559627298e-11  3.0657174480463527e-11  6.7223760930303122e-17  3.0481882319689160e-13  4.5026778715773134e-07  4.2225563828762043e-08  4.9086950901318308e-08  3.2561194662899045e-07  1.9718281971580343e-06  8.0018001973718684e-10  1.3144347993337524e-08  1.5252125596910398e-13  1.3638359731528705e-13  9.8905648545918740e-05  2.0778015011777550e-18  7.8405152059094732e-04  1.1666996145780214e+01  -2.0346796246967282e-18  5.5249346753923792e-14  2.0283293842537482e-06  4.6493903720348663e-11  1.5486414106081887e-04  1.3730921343726641e-13  -2.5494956335442232e-18  -1.6306602923039463e-17  1.4722684782612670e-18  -7.9018607989074155e-17  2.0634134072919849e-09  5.3240713372283809e-08  -8.5443140775851291e-13  8.1298973614517997e-11  -4.5379826192276525e-17  -1.2768531162692682e-07  5.1220749830168975e-06  1.5290205346423457e-05  1.1971441630182408e-09  9.7264473641639228e-13  1.0707013407461827e-09  3.0611412581439047e-05  2.8448976760297208e-06  -5.3839217822395255e-06  3.1397594722936871e-10  -5.7885891386694302e-12  3.9510885772668445e+00  2.2046709141391548e-18  -9.7448296827338596e-12  5.3150908496692017e-11  6.3563043265276288e-08  1.2635096344140238e-13  1.0034969860974733e-11  -5.4338614270239150e-17  6.2840137327091146e+00  3.0036578381126171e-06  1.5790938101470963e-13  -1.7288103349017496e-08  5.9967353414232164e-11  -1.4174141532372091e-16  5.2019330929011825e-10  -5.7145040692539336e-13  2.9084851356899132e-06  3.4354878610973319e-14  1.0854340629105908e-14  3.2224410055467298e-12  -3.9396046704015400e-12  -2.1841289701777520e-18  1.5205552982001235e-11  4.0950038431142997e-16  2.7947444012773913e-08  3.9214102813455743e-11  3.9996026052903722e-07  5.9873357868862743e-17  5.1563521643356530e-08  2.6409096112050481e-11  -1.5951718822482516e-18  5.8977791075035970e+00  1.0437052475912602e-14  3.0803037848652935e-10  1.2438789023741651e-11  5.0696305556294941e-09  -1.0792206477449744e-08  2.8308156826790384e-17  2.4880590581160810e-09  2.1914660995624568e-02  8.6484630836034856e-13  2.8767916474800561e-12  9.0016806991318356e-12  2.5131056984432228e-13  -6.5468431518740193e-16  8.3321290634848452e-12  2.4104300483810117e-05  7.6263615283307651e+00  3.3680529798637797e-11  1.2614064363796714e-10  4.2309417334826520e-20  2.2021297402895412e-10  4.9039508337168092e-08  1.2907988764436572e-06  3.1098432668026807e-14  4.6598171042571453e-16  3.8796213239013816e-16  6.5498896535282461e-08  -4.2584113693006984e-19  3.9833414670645942e-18  -1.7814580493566424e-18  1.5051949378162550e-16  3.8808108608472875e-08  -1.8154350648160677e-07  7.8827995497745456e-08  -6.1732258683474785e-16  1.2444973823935814e-06  -9.8901544956480563e-15  4.3761596894492199e-08  7.4984461718303631e-14  4.2710918680116947e-05  -3.7541382642382350e-08  8.9920468934465347e-09  1.8538874683473963e-10  -1.3261253182867265e-10  3.2983365606105811e-11  -4.5838188509726959e-03  1.0352659065964041e-03  1.4920709737433093e-05  2.5115805450184745e-07  3.1424880812236386e-14  4.1525669075169131e-03  7.5969101821436942e-17  -4.8427486147494812e-16  -3.1391999421455598e-16  2.1178485176047631e-16  -1.5396463589581515e-16  -2.4230548747751146e-16  -3.2929257539703125e-21  1.1631613926508157e-06  -5.0639726733413588e-16  -4.0321014734290804e-18  1.5456581986516848e-19  4.5105809306857992e-15  4.3786259447077890e-13  2.8558696869514871e-09  1.2273293990115006e-21  3.9391928969172200e-21  1.5911189969106717e-14  9.0039668100717542e-24  -3.7840379712960621e-07  1.8407578347304873e-05  5.8427545445628878e-05  3.0064532341678781e-04  -2.0095380354700233e-14  4.0485281357396606e-05  8.8907739798050997e-20  5.5730339314496070e-08  -3.4079841788616219e-13  4.4687852383088697e-11  3.8520559859280370e-10  7.1791293983670152e-11  5.3047962211513023e-07  -8.7357857160802352e-20  -8.0321533743570919e-20  1.3850092959592194e-17  1.1953643656589097e-18  1.1900647390028309e-15  4.1291659669605053e-13  5.7792802323223104e-08  2.3713179977032576e-11  -3.8325373768493759e-17  7.0701274515375364e-08  -3.0121879352618814e-10  7.6990856691477373e-09  1.6325161973489207e-05  -4.1851620968056936e-11  9.5973314925005007e-17  1.9545020172627867e-14  -5.4289788209731566e-17  4.2224183885138000e-13  -2.6271112150946537e-14  2.2010544936848660e-14  9.0682784399772795e-18  1.8063374929257915e-13  7.2453495995249624e-13  1.4836271512765352e-12  -4.2611709678888151e-17  8.4266681859406738e+00  2.6328564674383957e-02  1.5677315139205070e-08  4.2126696842240145e-19  1.5074185018390305e-16  -7.8220607080117055e-16  2.2672860159176205e-16  -9.0478136061226088e-22  -2.1827893249343366e-16  -3.2166521674962889e-20  5.6468376231905495e-03  -6.7100509588851470e-03  5.4615663570928559e-13  2.3767962353852889e-12  6.1149758089074588e-11  -1.8301100708715917e-16  -3.3269388295586791e-18  1.6538040524510155e-11  1.3477378619338636e-06  3.7010518662931492e-08  1.0562479607698152e-04  3.0976698779309266e-11  3.7808432091368642e-06  2.5364889351373048e-03  4.0579767290826480e-03  3.9846345687020920e-12  5.4465206159890515e-13  1.1588782867704121e-13  3.1472548075519108e-13  1.2447692419430128e-15  -8.1334590699058804e-18  -2.7063286438167834e-13  -2.2281728019053307e-17  1.0991213547073312e-18  2.1405648146202043e-12  -3.9422381181168719e-16  9.1049329571750225e-16  2.8300085405774821e-22  6.4304339371159210e-19  2.9253070346045262e-11  1.5834978013622411e-17  5.5663563618788865e-11  2.3774792907522695e-13  -1.7114627912859847e-13  -2.2280840993637373e-15  1.2034179773013727e-06  1.9849824016949311e-10  1.8833517312417107e-10  3.4005809123330456e-11  6.2399221890841098e-18  -5.9018711203505083e-18  9.6455214942507258e-19  9.7763914580032398e-21  -4.5572797573316647e-18  1.1435908390862391e-20  1.3971833815477466e-10  1.0107592214787231e-08  -4.2881403565858410e-15  1.2878865284713647e-12  5.8998601611901974e-08  6.5980858605590760e-07  -4.4732465846293915e-12  -4.6680082764922458e-12  3.9691874444528074e-10  3.1628241217330594e-09  1.7880113499194366e-11  4.6894707733643899e-15  2.6625489407703581e-17  -1.8921834496132007e-15  8.1717927016774641e-13  4.9812908492059933e-14  1.8075742042366758e-16  1.5098025961221497e-04  9.2853063900732800e-10  -1.1587899041975893e-15  3.7563359314805387e-05  1.1591627675318413e-11  1.5143809975446877e-11  2.2324078127307736e-13  2.5698970507589097e-10  2.7484715452220039e-02  2.7672776301694649e-21  -1.5079492270619014e-21  1.8640272641517221e-06  -6.4864691523233880e-20  -5.2790958910119723e-17  5.9580586197527747e-03  7.9602182079336903e-01  -1.8732944198107228e-03  9.8338458581613932e-18  4.6517836599154478e-14  7.2560699261738679e-02  2.6702708082562992e-08  -3.0085016463911926e-17  -8.2903143496787547e-03  -6.2550192323742716e-17  4.8702029082653247e-21  1.6914478535476573e-12  8.4112898604247321e-19  -3.9914836467519967e-16  -3.7090211613502920e-11  -1.1714581739907538e-16  8.4303957045805229e-11  2.2384159158358005e-16  1.5811311760006552e-04  1.6311081000579080e-09  -9.5707820602268946e-04  9.9226123609592725e-08  -8.3842854461356008e-16  2.8923874636030736e-05  -6.5156132994068289e-14  2.3220697881138339e-10  9.7056007112938704e-18  -7.6766293766554029e-13  1.2713328338813733e-16  4.2299524820912249e-18  1.3307044861309304e-09  7.6703793947169173e-10  7.5506780410806459e-17  1.7850987963512291e-08  -1.8630924405007356e-07  8.2476455650376955e-07  8.5866631260872304e-05  -5.2869978455853237e-16  8.7765348708067213e-13  1.2870389580204239e-09  2.0374088671732290e-11  3.0489316649441503e-04  3.9715673052126991e-14  4.2094030873050235e-16  1.6635192416618490e-16  6.7835436666474480e-14  1.3606220382091493e-12  2.0925136061853183e-16  3.4898704890838811e-17  8.1159325526328328e+00  1.4199807171831591e-02  1.8455552518530296e-05  1.2213211817871432e-04  5.7586067550800328e-07  4.9317729202695679e-05  1.4443742421002038e-06  4.5304843576627557e-10  4.8657626154812174e-12  3.7293607102212053e-05  7.0937501698288836e-20  3.0985006555011347e-10  -1.4477192320371085e-16  -5.5153518842051845e-09  6.1127559730424904e-08  2.5297384109232488e-07  1.7647961347513848e-05  -5.7741186218938847e-17  -2.7910818724617551e-17  9.5107651347889215e-09  -2.5866682126030592e-12  6.3046410888682322e-12  -8.0688687621367496e-18  9.5159797070496978e-15  5.5945695431708085e-08  2.2074737586438989e-08  2.4452207824537810e-17  2.0810149411791117e-17  -1.0139727906884037e-14  7.8249357422339989e-10  3.6856484113427615e-11  2.4517828507776851e-10  3.2087834384509224e-10  2.5039865935138413e-07  1.7540907020460968e-10  2.3065575930190210e-05  1.2043704486388067e-20  1.2979003927158628e-17  1.6314757745912857e-16  -6.6489833637242266e-12  1.3816891257154822e-12  9.1680373132082288e-18  2.0567958202971982e-19  3.3252583189389159e-22  1.8517903288683093e-19  1.6013936718002580e-11  1.3321081416668916e-10  1.4113701721249640e-11  4.4162519366023879e-08  -4.1414899490923872e-09  -3.3178703463409760e-09  3.6906393918359292e-14  4.2727508406864308e-08  6.0545405861968609e-13  8.4313231853503625e-07  -1.0290663734801620e-18  1.8043831103179366e-13  1.2016972871892916e-14  1.4243993534650336e-12  1.8137262281981369e-14  4.5546249661017002e-13  5.6452458184971637e-13  3.6908503525494802e-11  7.3601736400543448e-12  5.8058191159695741e-11  1.6980133300619332e-10  7.1389803070078242e-19  -1.3873243483338255e-22  3.3636483743888307e-17  3.0561222897876338e-14  2.8612263487276000e-19  5.6014900739681766e-17  -3.4883841226208655e-20  3.3758978180249467e-18  1.0008915784808419e-16  -8.4157781408438015e-16  5.2451813045665189e-16  3.9872492345345825e-17  -5.1419473523473841e-17  8.5746492371286415e-21  1.2917450508605802e-17  -1.0136925699146117e-20  1.6155101443294080e-20  -6.0479548120996896e-18  3.9559597774776256e-01  5.7575437477091861e-07  6.0900586452536368e-09  -1.2077197050045758e-10  7.1001397893292797e-18  -2.8609380700857979e-17  4.5797194263124116e-17  3.5855512757941989e-20  1.6191896153032276e-05  -3.9142061823600587e-13  -3.2337273688505787e-17  1.6921917277888702e-05  1.7904458413858270e-18  4.8038458286859570e-09  -4.7824166173396694e-14  2.1775165817945185e-07  -7.7019921462504733e-16  3.4434191559522286e-04  1.0169123111168315e-09  1.8513586606422801e-11  3.0163