<?xml version="1.0"?>
<VTKFile type="UnstructuredGrid"  version="0.1"  >
<UnstructuredGrid>
<Piece  NumberOfPoints="3002" NumberOfCells="5870">
<Points>
<DataArray  type="Float64"  NumberOfComponents="3"  format="ascii">323455.6100285493 6048753.88242996 0  323455.6100285493 5954782.59950515 0  405920.1480513444 5954782.59950515 0  405920.1480513444 6048753.88242996 0  405920.1480513444 6001768.240967555 0  323455.6100285493 6001768.240967555 0  364687.8790399469 5954782.59950515 0  364687.8790399469 6048753.88242996 0  364687.8790399469 5996367.117560402 0  323455.6100285493 6025261.061698757 0  382226.6271443229 6022560.499995181 0  405920.1480513444 5978275.420236353 0  323455.6100285493 5978275.420236353 0  353897.8957397301 6022560.499995181 0  344071.7445342481 5954782.59950515 0  385304.0135456456 5954782.59950515 0  405920.1480513444 6025261.061698757 0  354379.8117870975 5975574.858532775 0  381582.8168806895 5978840.396198289 0  384950.2598624413 6001768.240967555 0  344643.0480768835 6003429.02033719 0  344071.7445342481 6048753.88242996 0  385304.0135456456 6048753.88242996 0  339717.0321562298 5986078.187627405 0  337515.036058786 5969821.016310448 0  368062.2614420265 6013076.224998265 0  368062.2614420265 6032044.774992097 0  393987.6142659165 5988729.699941677 0  405920.1480513444 6013514.651333156 0  392856.2821527076 6034589.119828064 0  393514.9611654527 5968369.338068204 0  339399.8087404341 6032061.482581838 0  323455.6100285493 6013514.651333156 0  374995.9462927963 5965504.865595459 0  354379.8117870975 6037976.901948514 0  338123.9088969378 6017031.529131207 0  367397.3120126425 5982072.559192053 0  351882.5752379905 5991998.990225234 0  376945.425450199 5991232.708824487 0  392265.0061656896 6013300.936254065 0  357029.7426706699 6006608.947964352 0  380093.6207558212 6036880.127749795 0  323455.6100285493 5966529.009870751 0  405920.1480513444 6037007.472064359 0  405920.1480513444 5966529.009870751 0  323455.6100285493 6037007.472064359 0  333763.6772813987 6048753.88242996 0  405920.1480513444 5990021.830601954 0  323455.6100285493 5990021.830601954 0  362879.3643765316 5966837.319094267 0  348367.6438548031 5965604.161682394 0  334493.1989038612 5996935.948935225 0  395068.5043068817 6023875.372615605 0  348216.0324377587 6013504.844950221 0  379305.9090074943 6011603.390019651 0  372523.5158233726 6003480.000732267 0  395435.2039568929 5999384.346358113 0  395612.080798495 5954782.59950515 0  333763.6772813987 5954782.59950515 0  395612.080798495 6048753.88242996 0  374995.9462927963 6048753.88242996 0  374995.9462927963 5954782.59950515 0  354379.8117870975 6048753.88242996 0  354379.8117870975 5954782.59950515 0  335074.5981535012 6007206.680367459 0  391925.2695590468 5978591.908877409 0  371969.1707190623 6022560.499995181 0  383872.162544519 5969415.106147043 0  358038.7139835292 5984533.09712744 0  369699.869182786 5973102.2359358 0  369841.9126663716 6041099.453006387 0  343176.7440329155 5994428.220622956 0  362933.5332293962 6024385.235173292 0  330640.1760208776 5984148.625419154 0  348684.7494355051 5983110.856817525 0  399094.9690929834 6007537.420809742 0  345447.6324516311 5974162.84917082 0  332859.7749513451 6039150.972778062 0  344517.044630671 6024057.945416138 0  332973.1214415312 6025037.914505113 0  341428.0126373461 6040493.820728126 0  385874.264691618 5992757.40885039 0  350337.3662538711 6030387.535304286 0  359887.2373602368 6016186.250094838 0  377097.8989316926 6029115.217702097 0  338917.7109078235 5961484.016839475 0  329495.5261590715 5972402.215053552 0  336644.7280634616 5978216.610794215 0  330688.6715098422 5962480.256438018 0  359899.8039476132 6031963.415584587 0  399746.255941904 6030426.523907755 0  385511.6875144855 6030368.508996127 0  387377.735783329 6040763.821024337 0  398832.192399829 5974431.100387635 0  387992.9498994246 5962432.032572681 0  405920.1480513444 5984148.625419153 0  364925.7641745284 6005782.953640081 0  361769.877068089 6041226.651684469 0  398452.9199001931 6040850.732439541 0  398946.6205243983 5962252.502309519 0  362305.5577564609 5975984.89789681 0  356822.8065216601 5998470.186307689 0  386900.7115926162 5984820.732438302 0  329528.0119279922 6032067.230024892 0  331139.6939744562 6013813.572928222 0  398457.5876798834 5982541.698799337 0  405920.1480513444 6019387.856515957 0  398685.5166750694 6017257.578706384 0  348587.9424884976 6042755.309150081 0  369841.9126663716 5960143.732550304 0  380149.979919221 5960143.732550304 0  359533.8454135222 5960172.384722514 0  377147.8814772839 5972649.581024994 0  341756.3455763521 6010124.092444684 0  355615.8176864882 5966311.193813809 0  369144.4338274571 5989807.770003954 0  375185.9047422862 5983510.422041401 0  323455.6100285493 6007641.446150355 0  391856.7960121195 6005888.565703365 0  371978.0245217044 5996361.134308098 0  405920.1480513444 5995895.035784755 0  378877.1880032702 5998073.745937059 0  359056.6617417652 5991643.489540118 0  399278.8743430426 5993436.466134224 0  386116.8775939071 6009922.097099247 0  323455.6100285493 6019387.856515957 0  388994.7833819839 6019826.789191471 0  348897.6207366391 5998116.079250046 0  345456.3301153719 6035064.814295612 0  323455.6100285493 6042880.677247159 0  334124.3013408988 5990072.953472659 0  377097.8989316926 6018059.782440464 0  323455.6100285493 5995895.035784755 0  342871.8474798963 5980154.238874755 0  373596.9793292385 6035659.183886081 0  380149.979919221 6048753.88242996 0  376327.9292813152 6042294.581731233 0  329163.3548105369 6004704.843558955 0  350303.9432136903 6007093.032074522 0  383982.6552804571 6015912.664375832 0  345515.490569988 5988567.439252969 0  379019.812877927 6004678.052169549 0  365541.9137639466 6018750.691894444 0  349225.7781606728 5954782.59950515 0  352493.3399767278 5960815.406895458 0  363683.8130458911 5986976.225872464 0  386666.791301207 5975084.583584332 0  368937.6553346639 5966171.092344863 0  400003.9882214358 5968352.273777306 0  328776.0063842635 5992958.433193355 0  339958.4428758043 5999572.344589042 0  354577.7732363954 6012555.454074449 0  328609.6436549741 6048753.88242996 0  382053.0280278458 5988228.496807038 0  330708.6817934912 5978212.973348036 0  372084.7734679543 5978495.086505585 0  358568.2738174705 5971419.415228934 0  328931.2672829705 5998832.905089681 0  323455.6100285493 6031134.266881558 0  405920.1480513444 5972402.215053552 0  405920.1480513444 6031134.266881558 0  323455.6100285493 5972402.215053552 0  405920.1480513444 5960655.804687951 0  323455.6100285493 5960655.804687951 0  405920.1480513444 6007641.446150355 0  323455.6100285493 5984148.625419153 0  405920.1480513444 6042880.677247159 0  346648.7613474604 5960023.05127712 0  342415.3891593561 5966358.988213831 0  350507.6510228226 5971111.740321856 0  391773.9667214506 5994456.117700323 0  338875.8905424621 6026088.827345025 0  361429.1735454847 6010511.262533597 0  389395.7028803263 6025805.543023561 0  392895.6464692951 6043315.288173481 0  332846.8296575367 6019296.633131165 0  373337.4404588729 6009693.515402478 0  336544.3064612215 6043648.151399015 0  348610.2411382072 6019567.839754772 0  381943.4597763228 6042183.394750732 0  355630.0631288611 6028071.82801846 0  363941.5238882306 6035967.852698964 0  328179.67203552 6022271.326978176 0  401066.2857736665 5998807.415073814 0  344387.1099621175 6029612.545574771 0  393435.2235156003 5960233.556458537 0  400735.9970493424 6022675.638064924 0  393708.5772019727 6029179.837160029 0  400609.0696943338 5987857.851798974 0  361753.6614662939 6001152.171757337 0  400766.1144249197 6048753.88242996 0  353363.0524357285 6002630.165620538 0  343248.328463803 6018790.640008039 0  356419.8105951758 6043365.392189237 0  390234.385899412 6000759.497967276 0  368336.1168551637 6000220.532318851 0  328609.6436549741 5954782.59950515 0  387520.8298169724 6035372.992507171 0  400588.0280660195 6035823.299583429 0  329021.6598427091 6043194.252697862 0  393371.710206733 5983576.325812268 0  393638.9721728675 5973623.513063556 0  371727.9212466564 6017113.044457142 0  364687.2762977295 5959941.212693035 0  374995.9462927962 5960346.83186599 0  369841.9126663716 5954782.59950515 0  400766.1144249197 5954782.59950515 0  338917.7109078234 5954782.59950515 0  369841.9126663716 6048753.88242996 0  359533.8454135222 5954782.59950515 0  390458.0471720704 6048753.88242996 0  338917.7109078234 6048753.88242996 0  390458.0471720704 5954782.59950515 0  359533.8454135222 6048753.88242996 0  380149.979919221 5954782.59950515 0  349225.7781606728 6048753.88242996 0  339867.4956514095 6005339.817053361 0  333737.9460226952 6002130.523287664 0  336955.8140048417 6012008.440073739 0  377097.8989316926 6023232.32559834 0  371748.9790486701 6028016.629988787 0  338146.5171983215 5993298.164761053 0  355016.8390227688 6017610.913088997 0  393953.1528190996 6018968.416019509 0  335185.8133477239 5965142.63403323 0  328616.6041642396 5967263.80307608 0  380314.9487662361 5965460.362415641 0  354622.8993466098 6032976.142863722 0  328521.4725131759 6027215.026914048 0  334465.0783479523 6034070.534389696 0  328123.6212682287 6009699.206425843 0  381889.5169855529 5973936.741901617 0  359122.3484437474 6036790.002992895 0  386341.6533148278 5979963.279841923 0  400798.2159679119 6012477.871311778 0  388538.3765260249 5967461.292146791 0  340833.8784183678 5975728.708105717 0  355307.6239213505 5988552.151815021 0  362181.4274823388 5981261.937800813 0  353784.0322742948 5981044.538811012 0  358045.1698423899 5978741.391518688 0  328423.7350325213 6036912.015930048 0  366897.6876966125 6027277.723668203 0  347355.1745641421 5978532.307510624 0  376820.5060332146 5979033.270735624 0  349378.1778589479 6024378.632814493 0  327189.2282939323 6016451.253924556 0  338433.8773236172 6036753.902881841 0  350141.9760340559 5987605.90026687 0  363794.7083927878 5991713.491814731 0  350325.1285660182 6035273.515460094 0  382355.9358007369 5983507.499638396 0  327107.0747437811 59811
[...]
<PointData  Scalars="f_78871-1"> 
<DataArray  type="Float64"  Name="f_78871-1"  format="ascii">1.4906254255532951e-23  8.0298505785810228e-23  -1.8927107400771088e-17  -1.3036100214377185e-20  4.2640116580431153e-11  5.3370450219206445e-16  -5.2783214384722962e-16  -4.0416236819338380e-17  -5.0222031452031883e-03  -1.2329927453034328e-17  1.0003949323412243e-10  5.9508472339784832e-12  -2.4346747445353010e-19  -1.5053109819591774e-09  1.1847167096386606e-19  -4.2660734597856835e-15  -9.5293120275304574e-15  4.6250245800520531e-11  4.4832750847653396e-07  -8.1144778520936148e-05  1.0848513077691400e-07  1.4222624639441522e-18  -1.6370241824546439e-18  1.9571686686914837e-11  -6.3861128555006019e-17  4.4397275020101795e-04  -1.2056606006816419e-11  3.1494009083363145e-07  -4.0733321311391738e-13  3.0500824412825873e-16  5.0417930529491687e-11  -2.6544120159272226e-16  -2.1525060577036440e-16  -4.1008782246613669e-12  -9.5553650211355608e-14  4.2888974287791133e-12  4.6482158918087716e-06  -4.8292049570654036e-08  2.0383393657582176e+00  2.7336755144326236e-09  -1.3428641025258828e-04  -4.3363452497989564e-14  1.9560678074811142e-19  -6.1946688353035765e-18  -1.0906840530313352e-15  -1.5056889689126883e-19  -1.4944556969331429e-20  1.5225168360539518e-10  1.6505653505755206e-16  4.0269783118484858e-11  -2.9746518392850064e-16  -9.0029695539522735e-13  3.7155706967672709e-13  2.8673901214409308e-08  2.0945790255861140e-06  1.4203727067094638e-02  1.6100234969806902e-08  2.6830917260900353e-16  5.0598694936860189e-21  1.9731272386890027e-20  -4.8990313774242769e-17  2.8131139387109678e-16  5.7684101777471135e-18  -8.5750815522736080e-17  2.9312135180049678e-12  4.5606240273961996e-08  4.0371791668378613e-08  1.5017546385923521e-09  1.1683107781953922e-07  -9.1258140839549186e-10  -5.8581387880160302e-15  6.6816697330707029e-09  4.1546831698716979e-08  1.1216072532721219e-15  7.6638861357210398e-10  -2.0660797800592931e-10  1.0153163631096425e-12  -4.7465677145680351e-19  6.0835848365184914e-13  1.0818230082933611e-14  3.4349502723353716e-17  1.5471533084825741e-02  -6.4226825721145635e-12  5.1239762242079954e-06  -1.5151069558760249e-11  -5.9940868512066405e-18  2.1869797535677114e-17  5.7031204727038932e-14  -1.0855745985193114e-19  4.3971894547607219e-12  4.0146359821067105e-17  1.8267237783270693e-12  -3.5058601906744091e-17  6.2145887945276501e-11  2.9588682791280486e-12  7.8164123202019995e-11  1.2421852607123904e-01  1.0269136261681310e-14  9.5463374434098496e-19  -5.7769297546361906e-16  2.0004360235561987e-08  -7.2712572837407545e-05  3.5810429714093706e-05  5.6640167679437144e-18  6.5167626131376314e-14  -5.7069182211736747e-10  8.8358670640849257e-14  3.5993378234921596e-11  1.1852528503898788e-16  3.3387114252060486e-13  3.1523569080919851e-13  -1.7788784409818464e-15  -2.9067828330410519e-09  1.9506620054359532e-09  9.1474607449102691e-13  5.3604787437219392e-03  7.0015510079234669e-05  -6.6438165678534848e-16  2.6411301587662905e-07  5.5542280354399542e+00  2.1373173391649630e-10  8.8598318516903932e-02  2.0555071121316132e-04  1.7060090310022305e-08  4.4027653214823568e-06  1.4893797078138164e-17  2.4475282521204059e-10  7.1254231646764481e-07  -2.9136210511802156e-15  -5.4703655648286239e-21  3.5792859860989660e-13  7.4328736324329973e-08  -6.1554188224334775e-16  3.5894442441939677e-13  -2.1927539529085943e-13  1.7740503367858849e-17  -1.5741501106863799e-15  3.9424273627892466e-14  -9.7300687936908710e-08  1.9787457403655556e-09  1.2622793224737651e-09  -6.1988050879557976e-05  2.9431047028226614e-06  4.9895039488038092e-18  2.5734624093918739e-16  7.5636779570171755e-05  8.6925716534201755e-09  -1.4397275900331717e-12  7.8622801170976063e-13  4.7801606341306758e-14  4.8742706962246730e-09  1.6974210411273243e-06  -3.4921785673277484e-22  5.4179677558241325e-03  1.5629175602557494e-16  2.2309365566369338e-06  -9.0117870610622521e-12  1.1251331879625877e-13  -3.1861986076440972e-20  -1.8791779367630869e-13  -4.4254888198157616e-16  7.6045066707050265e-20  3.5419924544325831e-17  4.3718973667669491e-21  6.2467664028140652e-13  1.3415691871061456e-17  2.0787151489586920e-21  -9.0113713788046014e-19  -1.4223805035881405e-16  1.1203022697715502e-12  2.8737909838457115e-06  2.0665935610751762e-13  -6.9646692795137790e-05  9.8913753477334326e-13  1.7677108164111362e-18  9.1677282305727061e-14  6.8018576463312186e-06  -4.0607239953394336e-19  -3.6161691178195365e-10  7.0207196376539241e-17  -4.9873562747185009e-11  3.0254764677927483e-14  1.6758841246514003e-16  1.0167142766034377e-09  -2.3155392768425607e-13  -3.4880697596686727e-14  -4.9600260426252782e-14  4.6337018680347100e-14  7.6550979452124616e-10  3.6793280946761848e-03  1.3265167210124875e-20  6.3488991247472192e-05  1.8669493289031634e-10  6.3606282320002147e-17  3.2111158780117486e-06  6.3570538793622156e+00  -1.7884681437497643e-21  3.6275196214992162e-15  2.2543655006651817e-17  3.8278073695533701e-21  7.7004422236468466e-08  -1.2324935863261084e-11  2.8521330454864914e-06  -3.0996654463218755e-14  1.1701781068377313e-14  8.7940958275383924e-17  -5.1385730010447631e-17  -2.2285470081245495e-20  5.2749251688395384e-17  -2.4408903954397436e-16  -3.7084565538461307e-19  -9.6219712537001212e-20  -2.9984744190417863e-16  -5.6066670650747626e-18  3.4802309849036872e-18  5.3465874089817777e-18  4.1298500150792657e-09  1.2664590075322675e-11  4.8932068734352765e-12  3.7588628552810023e-09  3.9548975088789605e-10  3.3047134712263580e-12  -4.4064069120759273e-08  8.1566628952924035e-11  -7.3980204794948938e-18  8.1529405879014944e-19  1.3492769720352387e-11  -2.3402866058291236e-12  1.1856148793552934e-17  5.3216595516211276e-18  2.8152262832615935e-14  9.0221339784143805e-09  9.9579941590519332e-13  1.3947250278147909e-06  -2.0615558183902898e-11  -1.3905661227993819e-11  4.5932743367444276e-14  9.8451036692125884e-07  3.8712350957496991e-08  2.1064057911166988e-09  4.8088923173137837e-11  6.2473205057706223e-20  8.4324918007961027e-10  3.6544182214478919e-11  8.6623238169627146e-07  -1.1195700928810410e-10  1.2855885898671272e-16  -2.4440889532439417e-17  1.3987514011805591e-08  5.5640774857032061e-04  1.4122927360166173e-13  2.0259404748587792e-04  -1.5621607497191028e-17  6.6185316270711247e-13  6.3018077900518725e-15  -4.0749001915211004e-03  -7.3615156061925877e-11  4.5931991141837640e-10  4.1524592844433567e-08  -7.6456973783987300e-16  -4.9328019988244450e-16  -3.8049906697958531e-13  -1.6354816989401079e-17  2.6480795596555444e-16  4.1269221371209329e-08  2.0763523653932203e-06  7.3104922245589519e-17  -1.7556545356758063e-04  3.3874016958086165e-13  2.3522038802685141e-07  3.9195111001083745e-05  3.5074203234537821e-01  3.0277392446635357e-08  7.4216524158306176e-14  -8.2953853170117630e-09  1.0784600746844631e-09  4.5103465825415905e-09  5.5609757520220677e-09  6.5676595525606475e-05  8.5273759824781542e-11  1.5441422317221224e-09  4.6589903104512113e-10  3.1531073538133492e-06  1.9099299175549757e-04  7.7729332342840884e-05  4.2889185056691474e-17  3.9961393449561393e-09  7.9197500175860657e-19  3.5623458354177310e-14  -2.3153105366272441e-09  6.9308887593083589e-11  4.4347495339967876e-10  -1.3266058450660075e-18  5.5436208356852708e-11  -1.4921445001253503e-12  6.6921740121126420e-03  -6.8788079626661414e-15  -2.3769633951692221e-19  -4.2251094056936809e-18  -2.8331293620795504e-06  1.5880965412709269e-14  8.1091803619366595e-13  1.1780059756389963e-17  -1.7546238545900088e-11  -9.6587086762620715e-20  -1.3791299207411024e-18  9.2422229843419033e-21  1.1775847456039891e-02  -5.2874403452789054e-17  4.0048510069919524e-03  4.1116292545278178e-16  -1.0947027091672461e-20  4.1481805353357114e-16  -2.7522495077517597e-13  -1.0356268482438452e-12  1.4470476497665562e-13  6.2485862772443678e-11  1.8327046925992950e-12  2.3252265670868100e-14  -1.1442596468040790e-15  -8.7450738381498376e-13  -7.0674566657751691e-07  -8.4345216109137333e-05  -3.3784045733574012e-05  -1.2855656645268202e-16  -6.5909749185994623e-11  2.0037169959886434e-13  -9.0513747667526008e-22  1.3961669122576784e-20  -3.8486610539301708e-13  -3.4738741251895217e-12  1.2817957813287672e-11  1.4226669072921309e-12  -5.0639233002197994e-15  -1.7178058521531422e-15  9.5949983742962231e-16  4.1077372622147891e-03  7.5328616595129396e-10  -4.5767195431382657e-14  9.8642566814069144e-08  1.1490864186783370e-02  1.0101716895767993e-02  9.0174031798094284e-04  -8.1863856604883004e-03  -2.6212088755526340e-16  1.0603566516641478e-06  6.6061288256435610e-12  3.1413520607441792e-12  -7.5313604192392716e-12  -3.3984043140594664e-11  -2.0420161339180241e-22  3.5739536933056351e-20  -5.3491773682031496e-08  2.6546758893969352e-13  1.0849751999773320e-12  -2.3259756192994113e-06  2.0562092227573947e-14  4.4598298295189390e-08  1.0109946110722312e-16  -2.3739826167371867e-09  2.9711519979823802e-08  -6.9150647049920359e-17  2.1117098915331168e-19  -1.3119765321874358e-04  -7.9463139881912519e-09  2.5381704812728036e-12  -1.4542061264815276e-12  2.4285471095288417e-12  -2.0889278759184747e-20  7.5706786711886572e-18  5.3324987092223480e-17  3.5260444890855445e-03  1.8063264576497609e-09  -1.2241654100232335e-15  -1.7042919285867939e-15  1.6214456998714914e-12  1.7170474190823204e-12  1.5655254337360663e-14  -1.3190675584668858e-16  4.8105995080338732e-09  -7.4766639691357924e-08  1.0688010939306335e-11  8.5208591430867655e-18  3.3644380710401562e-13  1.5399971098175460e-10  -1.2686581458528051e-17  -6.4486199102540558e-13  1.2721556512587621e-04  8.6386841029919793e-10  -1.6612884514460605e-12  2.0573531830727410e-14  -8.5355544987672021e-16  -1.4034314861876906e-19  1.6704015803989687e-13  2.1944615184549910e-05  1.8173247241792632e-11  4.7912992657347701e-13  -1.5335270561602187e-10  2.0737713047435999e-11  -2.4266523936661740e-12  6.5664323931815101e-09  8.0151872505754276e-10  -2.1842194877356942e-16  -1.1279530266819305e-13  5.8474660786888463e-08  1.0890919098960699e-08  -1.8137765730936680e-09  -2.9373476354292303e-08  7.1568606019305942e-06  4.3583645846175292e-10  -2.3024777989889125e-09  -4.4486345997955900e-14  -1.5224809874017612e-14  9.1389139655858660e-06  4.8834900410852298e-19  2.6804968658570633e-04  1.0514700374964498e+01  -6.9726970835118416e-19  -3.8228111403017940e-16  6.2291432849318789e-07  1.7677397289793691e-10  5.8035213535946970e-05  3.8704405906456044e-14  9.5575992121031359e-18  6.4978536251070142e-17  4.1753491410781470e-17  1.7762938389846444e-16  2.8517912589705501e-09  3.5076901568507155e-08  -6.1113405345503397e-14  2.0911153624839494e-13  -2.9411769518531880e-18  2.9538210036907029e-06  4.1312087372035973e-06  4.4262809765646597e-05  -3.3581397772024759e-11  -8.3672423124426157e-14  5.0646594924114922e-10  -3.0569265892932624e-06  -1.2103039304303816e-07  1.7030466170507237e-05  1.2432807470039434e-09  2.3489573892392336e-10  1.9121451081880996e+00  -5.3859659802470642e-19  1.1961053495374491e-10  2.3724655963252729e-12  -2.6892543387571230e-09  4.3375816964295464e-14  -6.5944155726673690e-13  3.3202584657500814e-17  4.0271849631476142e+00  8.9438280751776452e-07  4.3020314444149722e-13  1.2278197115397505e-07  8.9736068183364535e-11  5.0024876904173705e-16  2.0740233570117132e-09  3.3211540406560722e-12  9.3259800072641296e-06  7.9195039257145876e-15  -3.8386351938603347e-15  -2.7252241188777135e-13  7.6469536616232921e-11  2.1123153905498435e-18  -1.3187558738237752e-12  2.0066205574702469e-16  -3.7024044985498458e-09  3.7746683452542875e-10  -1.8605099660940713e-07  2.8763615772653736e-15  7.9323854213136346e-10  -6.4293221707121570e-12  4.2990178652270442e-19  4.0239524643705984e+00  1.4507800611151428e-16  7.2370325407991940e-11  1.5557401952742873e-11  6.0083771418959331e-08  4.7648007105535830e-07  -1.5750347053335476e-16  1.0501921142208725e-09  1.2097390138903702e-02  -9.2099201926508076e-14  1.6083437446054680e-10  1.1858137529523442e-12  7.6771986913043423e-13  2.1948499561210916e-17  2.9450939019231236e-12  -3.6936691327494489e-07  5.3848659400320980e+00  1.9097424940377997e-10  9.0312995099291972e-12  1.1795019844014573e-20  5.3693107303468406e-10  -1.0812877627075646e-09  1.4705990415092531e-06  8.1929321218039592e-15  1.3642708830514207e-14  8.5037010092135890e-16  1.0038134067441451e-07  2.5378844115946175e-18  8.6427844472060683e-19  -1.2045667205346701e-18  5.7499504123957782e-18  2.6210027701734953e-08  2.1656349633119321e-06  1.6946780957017778e-07  1.3201856518519621e-15  -2.9488284279043897e-08  6.4886050527046600e-13  7.1810978925498056e-10  2.2337434521760050e-14  2.2928711509236844e-05  5.9216117741493932e-07  -4.8115659315012218e-10  -1.0799574636796374e-11  1.2095019475589834e-09  -6.4728623327289563e-11  -7.7665847070020142e-03  3.7923496327206733e-05  4.1025371698925920e-06  2.7208756163515865e-09  -1.1973944284067413e-15  6.4458952847024520e-04  -1.2030762032998644e-17  4.5178509031773299e-17  -3.4260016405737399e-15  -4.0910375350473994e-16  4.4331790765864827e-16  4.0866154344720779e-14  2.7727882969617690e-20  8.4117118877232083e-08  1.9635712289066510e-16  3.5109193051499567e-18  -2.1070282651735335e-17  8.2648408045134547e-14  7.1361587594365958e-14  9.4436146956862817e-10  -3.0658223189567922e-22  3.3347711382484426e-22  -2.2341334932238166e-15  -2.7266127802573922e-22  6.1860398025916245e-06  6.2721371991463180e-07  4.8658934074665394e-05  3.6982729989468882e-04  5.6159043486865241e-14  2.5580400084343678e-05  -3.3901877704186600e-19  4.8146113298987774e-08  1.6628520452679790e-13  3.8367100814352517e-12  -4.9330938250843320e-11  -1.4643739978826908e-11  2.8738424402184805e-09  -8.6639689104197115e-20  -7.4762448219066316e-20  4.4353207214428865e-19  -7.3539450791326190e-18  -2.5739421638864019e-16  9.3603889197229403e-13  9.4037955039487306e-09  1.9881886120268073e-10  -2.8167329500218465e-17  -1.6593947321063052e-09  9.3136662565625637e-10  -5.4462975675542835e-11  8.0837093120542579e-07  1.2690319750020863e-10  -2.4015275825447091e-17  2.3739001077880129e-15  5.1511797521857082e-16  1.0287308382300300e-12  2.9368057779264978e-12  -1.0158516722470046e-15  2.5912631387075829e-17  8.3842950835045844e-14  9.9780467196228307e-14  3.0191223848321286e-13  1.1953016101393593e-16  5.7316766685681166e+00  1.8896293955687350e-02  -4.2831323908634639e-10  5.0261027404722477e-19  -4.1890254564423257e-17  -5.0165422565584042e-16  -6.7823414071046383e-16  2.1448023129532456e-21  1.9590127392884216e-15  4.2260980380328079e-20  5.0252017112368767e-03  -5.0084421932197016e-03  -3.4427654155465417e-14  9.6853088663707495e-13  -2.1565877690768783e-15  1.9102888091875915e-16  2.5034744827526899e-17  -9.4474286795936226e-13  2.6625473737295530e-06  9.3886531089260827e-08  6.2805523692498308e-05  1.9089295258298425e-10  4.7307787342760961e-06  -2.9203974570491997e-04  9.2900064102650476e-03  5.0323789665890702e-12  2.5812098527333880e-12  6.2960921575145941e-13  3.1590265394282283e-14  -1.0257439060623304e-15  2.3084023256218207e-18  2.0726482157515127e-12  3.7660682844807637e-17  4.3771219671513953e-19  -1.5308967844537075e-13  1.4645949509346827e-15  -4.1251305061135149e-16  -3.3093692934052834e-20  -5.9495196577705761e-19  -3.0356497616360597e-12  2.7943002661621935e-18  5.6428172224064530e-11  1.2578573998917783e-13  6.8437906533139867e-13  2.1761912410452899e-14  1.0104688682326624e-06  2.1772060464816283e-11  -7.6045663980834202e-11  5.3823161926049064e-13  7.4154995322821633e-19  -1.4957069242827827e-18  -1.0906922355241935e-17  -7.1910671492166799e-21  -4.7908963377410869e-18  1.5827602269674415e-19  2.3703972190660599e-11  -8.6374058403829612e-11  5.2150775959156427e-14  -9.9164156116331816e-14  -2.1096549024673312e-09  -5.8406893130560292e-08  7.6256839971067990e-11  8.2708051890875843e-11  3.1946937851685038e-09  5.4425762396144307e-11  4.2562182474887031e-13  -1.8276837292709928e-16  -4.3557895893393057e-17  5.0626023625587648e-14  2.5545493142316560e-13  6.5812333326368394e-14  2.7367090525218316e-16  2.0747819875490431e-04  -5.0606210507113799e-11  -1.6027711517437058e-15  -2.1083902825432638e-06  -8.2556393558948281e-14  3.7495909232769534e-12  3.4030644233140974e-13  3.0717959586618892e-10  1.4630148105707893e-02  5.4282860079265778e-21  -3.1246308117447577e-21  7.4971233843165056e-06  2.7715496144259359e-20  -1.7462715128141040e-16  1.4160549799001494e-03  1.6249899574177379e-01  -5.3467227414767836e-03  -2.4174791674451149e-17  3.4163069732806048e-16  7.7527510028810153e-03  -7.5071339524022826e-09  -1.0645824370105665e-17  -6.1043874309893798e-03  2.1920907452794044e-16  3.8799874781239559e-21  1.5284504626656499e-12  -5.9487047029073541e-19  -2.5951306535489573e-15  1.3072207140299836e-09  -2.1105593489182220e-17  5.9993228292338611e-11  -1.9941178366292854e-16  -1.0170775903035241e-04  -2.1509804009021385e-11  -4.4132225547855149e-03  -4.6457599066636746e-09  -1.5836206973966874e-15  -5.7152391758782277e-06  1.4503162536651923e-13  -5.6138760443250018e-11  1.1092168307889301e-17  1.8941489947893478e-11  -8.2322524823250452e-17  -8.0583807927090496e-18  -1.5979129100469213e-10  3.9129189538758593e-10  -3.3467433163609778e-17  8.0814220037938157e-10  2.2218882584356018e-06  1.8451209618135376e-07  3.1381159660220717e-05  -2.1677203100333222e-16  -7.0494704391185745e-14  1.2330517989305319e-10  3.2605010186461702e-11  -6.5313562950888586e-05  -2.9001889591603492e-15  1.5847534025250761e-15  -1.3204507152827677e-16  7.1525514655467024e-14  1.0359441592007311e-12  3.7257871460507579e-16  -1.2752818951431109e-16  5.6213007583406407e+00  5.8704041193258418e-03  -2.2912046432874400e-06  1.1457980749787644e-04  -5.9674978605361900e-07  3.5524999015491968e-05  1.2237972158915032e-06  4.1147426421524874e-10  1.7946096594633493e-11  2.7444910360246870e-06  -1.2855396814880030e-18  -2.0296283721818059e-11  1.4022889585366624e-16  1.0640649327580247e-07  -1.6596536954763208e-09  -1.0099604749455867e-08  -6.7849935250237855e-07  1.9440223152620693e-17  -2.1018538913349396e-18  4.0939539252328306e-09  1.6965345778580800e-11  -4.5224892572056393e-13  -7.6810092159631904e-17  2.6248058139634803e-14  4.6170635909645533e-08  5.4848451073018168e-08  1.1128701112887724e-17  -5.6234193372383294e-18  2.0335364858244317e-14  1.5636280133984452e-10  1.7328930005849435e-10  -3.5563064285954828e-11  -2.7602762555103359e-11  -2.0792336188412400e-09  -2.5386594537664129e-11  -2.4369191419674431e-06  -6.9205642769525787e-20  2.2185023276640485e-18  4.1320042339613766e-17  2.9190094153624378e-11  1.1966921580611213e-12  -1.8220149355881705e-18  1.5623880159930453e-19  -1.3358480431046613e-19  -5.0561073893337456e-18  -2.0620761202724893e-11  1.0901982915587165e-10  -3.0431192114499253e-12  7.6522850298545591e-08  6.3437327982326644e-08  2.7707145068239996e-08  -4.3142376585643846e-16  1.4965479895111791e-08  3.2663759645817724e-14  4.6895978664692687e-07  4.8205437964535482e-19  -7.9974952483022464e-14  1.3074481439744612e-14  2.7075369692693875e-13  5.6179984413007650e-14  2.7876246066140052e-13  3.7258224611250018e-12  5.5846885662872005e-12  6.4181047180440365e-12  5.1351949814818831e-12  5.3990788877422386e-10  5.4359614126635583e-20  -6.4704054010078994e-23  3.7487947902084764e-16  4.4338105717062802e-16  4.0557694905326390e-19  -4.6408207353601139e-18  6.7422604488485850e-19  -2.6497476856160384e-17  3.6867579613379643e-16  7.4094787432535149e-16  -1.6248999925925915e-16  -2.4057075033346789e-17  -5.1356957346057582e-17  2.2281915065621539e-21  -9.9433610046706432e-18  -3.2785959237931004e-20  -4.7211679220094623e-20  -1.0647217645010534e-18  7.0525716467867081e-02  -1.1256933643456804e-07  8.1182297515756946e-09  6.5877243644877010e-09  -5.9407195937785726e-18  -3.1399884008550516e-17  3.9657671724757524e-16  4.8992793706418784e-20  1.1894759202550108e-06  1.1179685561191531e-12  -1.9553021677326673e-17  3.1738058350082314e-05  7.1305077193470508e-19  5.9010762291080087e-11  1.1613650729413493e-12  2.9732525370841644e-07  1.2572532274496203e-15  3.6