<?xml version="1.0"?>
<VTKFile type="UnstructuredGrid"  version="0.1"  >
<UnstructuredGrid>
<Piece  NumberOfPoints="3002" NumberOfCells="5870">
<Points>
<DataArray  type="Float64"  NumberOfComponents="3"  format="ascii">323455.6100285493 6048753.88242996 0  323455.6100285493 5954782.59950515 0  405920.1480513444 5954782.59950515 0  405920.1480513444 6048753.88242996 0  405920.1480513444 6001768.240967555 0  323455.6100285493 6001768.240967555 0  364687.8790399469 5954782.59950515 0  364687.8790399469 6048753.88242996 0  364687.8790399469 5996367.117560402 0  323455.6100285493 6025261.061698757 0  382226.6271443229 6022560.499995181 0  405920.1480513444 5978275.420236353 0  323455.6100285493 5978275.420236353 0  353897.8957397301 6022560.499995181 0  344071.7445342481 5954782.59950515 0  385304.0135456456 5954782.59950515 0  405920.1480513444 6025261.061698757 0  354379.8117870975 5975574.858532775 0  381582.8168806895 5978840.396198289 0  384950.2598624413 6001768.240967555 0  344643.0480768835 6003429.02033719 0  344071.7445342481 6048753.88242996 0  385304.0135456456 6048753.88242996 0  339717.0321562298 5986078.187627405 0  337515.036058786 5969821.016310448 0  368062.2614420265 6013076.224998265 0  368062.2614420265 6032044.774992097 0  393987.6142659165 5988729.699941677 0  405920.1480513444 6013514.651333156 0  392856.2821527076 6034589.119828064 0  393514.9611654527 5968369.338068204 0  339399.8087404341 6032061.482581838 0  323455.6100285493 6013514.651333156 0  374995.9462927963 5965504.865595459 0  354379.8117870975 6037976.901948514 0  338123.9088969378 6017031.529131207 0  367397.3120126425 5982072.559192053 0  351882.5752379905 5991998.990225234 0  376945.425450199 5991232.708824487 0  392265.0061656896 6013300.936254065 0  357029.7426706699 6006608.947964352 0  380093.6207558212 6036880.127749795 0  323455.6100285493 5966529.009870751 0  405920.1480513444 6037007.472064359 0  405920.1480513444 5966529.009870751 0  323455.6100285493 6037007.472064359 0  333763.6772813987 6048753.88242996 0  405920.1480513444 5990021.830601954 0  323455.6100285493 5990021.830601954 0  362879.3643765316 5966837.319094267 0  348367.6438548031 5965604.161682394 0  334493.1989038612 5996935.948935225 0  395068.5043068817 6023875.372615605 0  348216.0324377587 6013504.844950221 0  379305.9090074943 6011603.390019651 0  372523.5158233726 6003480.000732267 0  395435.2039568929 5999384.346358113 0  395612.080798495 5954782.59950515 0  333763.6772813987 5954782.59950515 0  395612.080798495 6048753.88242996 0  374995.9462927963 6048753.88242996 0  374995.9462927963 5954782.59950515 0  354379.8117870975 6048753.88242996 0  354379.8117870975 5954782.59950515 0  335074.5981535012 6007206.680367459 0  391925.2695590468 5978591.908877409 0  371969.1707190623 6022560.499995181 0  383872.162544519 5969415.106147043 0  358038.7139835292 5984533.09712744 0  369699.869182786 5973102.2359358 0  369841.9126663716 6041099.453006387 0  343176.7440329155 5994428.220622956 0  362933.5332293962 6024385.235173292 0  330640.1760208776 5984148.625419154 0  348684.7494355051 5983110.856817525 0  399094.9690929834 6007537.420809742 0  345447.6324516311 5974162.84917082 0  332859.7749513451 6039150.972778062 0  344517.044630671 6024057.945416138 0  332973.1214415312 6025037.914505113 0  341428.0126373461 6040493.820728126 0  385874.264691618 5992757.40885039 0  350337.3662538711 6030387.535304286 0  359887.2373602368 6016186.250094838 0  377097.8989316926 6029115.217702097 0  338917.7109078235 5961484.016839475 0  329495.5261590715 5972402.215053552 0  336644.7280634616 5978216.610794215 0  330688.6715098422 5962480.256438018 0  359899.8039476132 6031963.415584587 0  399746.255941904 6030426.523907755 0  385511.6875144855 6030368.508996127 0  387377.735783329 6040763.821024337 0  398832.192399829 5974431.100387635 0  387992.9498994246 5962432.032572681 0  405920.1480513444 5984148.625419153 0  364925.7641745284 6005782.953640081 0  361769.877068089 6041226.651684469 0  398452.9199001931 6040850.732439541 0  398946.6205243983 5962252.502309519 0  362305.5577564609 5975984.89789681 0  356822.8065216601 5998470.186307689 0  386900.7115926162 5984820.732438302 0  329528.0119279922 6032067.230024892 0  331139.6939744562 6013813.572928222 0  398457.5876798834 5982541.698799337 0  405920.1480513444 6019387.856515957 0  398685.5166750694 6017257.578706384 0  348587.9424884976 6042755.309150081 0  369841.9126663716 5960143.732550304 0  380149.979919221 5960143.732550304 0  359533.8454135222 5960172.384722514 0  377147.8814772839 5972649.581024994 0  341756.3455763521 6010124.092444684 0  355615.8176864882 5966311.193813809 0  369144.4338274571 5989807.770003954 0  375185.9047422862 5983510.422041401 0  323455.6100285493 6007641.446150355 0  391856.7960121195 6005888.565703365 0  371978.0245217044 5996361.134308098 0  405920.1480513444 5995895.035784755 0  378877.1880032702 5998073.745937059 0  359056.6617417652 5991643.489540118 0  399278.8743430426 5993436.466134224 0  386116.8775939071 6009922.097099247 0  323455.6100285493 6019387.856515957 0  388994.7833819839 6019826.789191471 0  348897.6207366391 5998116.079250046 0  345456.3301153719 6035064.814295612 0  323455.6100285493 6042880.677247159 0  334124.3013408988 5990072.953472659 0  377097.8989316926 6018059.782440464 0  323455.6100285493 5995895.035784755 0  342871.8474798963 5980154.238874755 0  373596.9793292385 6035659.183886081 0  380149.979919221 6048753.88242996 0  376327.9292813152 6042294.581731233 0  329163.3548105369 6004704.843558955 0  350303.9432136903 6007093.032074522 0  383982.6552804571 6015912.664375832 0  345515.490569988 5988567.439252969 0  379019.812877927 6004678.052169549 0  365541.9137639466 6018750.691894444 0  349225.7781606728 5954782.59950515 0  352493.3399767278 5960815.406895458 0  363683.8130458911 5986976.225872464 0  386666.791301207 5975084.583584332 0  368937.6553346639 5966171.092344863 0  400003.9882214358 5968352.273777306 0  328776.0063842635 5992958.433193355 0  339958.4428758043 5999572.344589042 0  354577.7732363954 6012555.454074449 0  328609.6436549741 6048753.88242996 0  382053.0280278458 5988228.496807038 0  330708.6817934912 5978212.973348036 0  372084.7734679543 5978495.086505585 0  358568.2738174705 5971419.415228934 0  328931.2672829705 5998832.905089681 0  323455.6100285493 6031134.266881558 0  405920.1480513444 5972402.215053552 0  405920.1480513444 6031134.266881558 0  323455.6100285493 5972402.215053552 0  405920.1480513444 5960655.804687951 0  323455.6100285493 5960655.804687951 0  405920.1480513444 6007641.446150355 0  323455.6100285493 5984148.625419153 0  405920.1480513444 6042880.677247159 0  346648.7613474604 5960023.05127712 0  342415.3891593561 5966358.988213831 0  350507.6510228226 5971111.740321856 0  391773.9667214506 5994456.117700323 0  338875.8905424621 6026088.827345025 0  361429.1735454847 6010511.262533597 0  389395.7028803263 6025805.543023561 0  392895.6464692951 6043315.288173481 0  332846.8296575367 6019296.633131165 0  373337.4404588729 6009693.515402478 0  336544.3064612215 6043648.151399015 0  348610.2411382072 6019567.839754772 0  381943.4597763228 6042183.394750732 0  355630.0631288611 6028071.82801846 0  363941.5238882306 6035967.852698964 0  328179.67203552 6022271.326978176 0  401066.2857736665 5998807.415073814 0  344387.1099621175 6029612.545574771 0  393435.2235156003 5960233.556458537 0  400735.9970493424 6022675.638064924 0  393708.5772019727 6029179.837160029 0  400609.0696943338 5987857.851798974 0  361753.6614662939 6001152.171757337 0  400766.1144249197 6048753.88242996 0  353363.0524357285 6002630.165620538 0  343248.328463803 6018790.640008039 0  356419.8105951758 6043365.392189237 0  390234.385899412 6000759.497967276 0  368336.1168551637 6000220.532318851 0  328609.6436549741 5954782.59950515 0  387520.8298169724 6035372.992507171 0  400588.0280660195 6035823.299583429 0  329021.6598427091 6043194.252697862 0  393371.710206733 5983576.325812268 0  393638.9721728675 5973623.513063556 0  371727.9212466564 6017113.044457142 0  364687.2762977295 5959941.212693035 0  374995.9462927962 5960346.83186599 0  369841.9126663716 5954782.59950515 0  400766.1144249197 5954782.59950515 0  338917.7109078234 5954782.59950515 0  369841.9126663716 6048753.88242996 0  359533.8454135222 5954782.59950515 0  390458.0471720704 6048753.88242996 0  338917.7109078234 6048753.88242996 0  390458.0471720704 5954782.59950515 0  359533.8454135222 6048753.88242996 0  380149.979919221 5954782.59950515 0  349225.7781606728 6048753.88242996 0  339867.4956514095 6005339.817053361 0  333737.9460226952 6002130.523287664 0  336955.8140048417 6012008.440073739 0  377097.8989316926 6023232.32559834 0  371748.9790486701 6028016.629988787 0  338146.5171983215 5993298.164761053 0  355016.8390227688 6017610.913088997 0  393953.1528190996 6018968.416019509 0  335185.8133477239 5965142.63403323 0  328616.6041642396 5967263.80307608 0  380314.9487662361 5965460.362415641 0  354622.8993466098 6032976.142863722 0  328521.4725131759 6027215.026914048 0  334465.0783479523 6034070.534389696 0  328123.6212682287 6009699.206425843 0  381889.5169855529 5973936.741901617 0  359122.3484437474 6036790.002992895 0  386341.6533148278 5979963.279841923 0  400798.2159679119 6012477.871311778 0  388538.3765260249 5967461.292146791 0  340833.8784183678 5975728.708105717 0  355307.6239213505 5988552.151815021 0  362181.4274823388 5981261.937800813 0  353784.0322742948 5981044.538811012 0  358045.1698423899 5978741.391518688 0  328423.7350325213 6036912.015930048 0  366897.6876966125 6027277.723668203 0  347355.1745641421 5978532.307510624 0  376820.5060332146 5979033.270735624 0  349378.1778589479 6024378.632814493 0  327189.2282939323 6016451.253924556 0  338433.8773236172 6036753.902881841 0  350141.9760340559 5987605.90026687 0  363794.7083927878 5991713.491814731 0  350325.1285660182 6035273.515460094 0  382355.9358007369 5983507.499638396 0  327107.0747437811 59811
[...]
<PointData  Scalars="f_24869-1"> 
<DataArray  type="Float64"  Name="f_24869-1"  format="ascii">5.5864124686691857e-24  3.4818950167808747e-23  2.5925378751311193e-18  6.4984315139635068e-22  -5.1000303522275532e-12  -5.0326980059005906e-18  -6.1804856662689071e-17  -1.2903992608892831e-18  -1.8144468623300756e-05  2.6776949776130933e-19  2.5458728911930170e-10  5.0282588825531035e-13  2.6075245796021398e-19  -3.2479006061683397e-11  5.9943185182189879e-20  -7.5042863533903028e-17  1.1021606390049925e-16  6.8318141580801960e-12  -5.5091652989435322e-08  -7.0292211648838675e-06  3.6802224993598920e-09  -1.4167061776675003e-19  4.9713725336959822e-19  2.3681033124555694e-14  8.9960039877009653e-18  4.1153155647593226e-07  6.1016017736882919e-12  -2.6604258498684990e-08  -3.7747694162745118e-14  -1.2275386555888428e-16  -3.9838303558686403e-13  -4.6159777303344764e-17  8.9508989518576428e-18  -1.7559617344334165e-13  4.1104526155419647e-15  7.5592833488679916e-14  2.9257959450805327e-07  6.2633316132193440e-09  2.7098159285358771e-02  -8.9022717443152267e-10  3.1893096300980409e-05  2.1728992910754485e-13  -3.9405152223243500e-21  6.4579093244731620e-19  -1.5265095646195092e-15  1.7042578292610801e-20  -4.1006822183231840e-22  3.0586668111097425e-12  -1.5343358194929362e-18  4.7418289236828364e-12  -5.4484092424388202e-17  1.0417481749861179e-13  1.3192641969266500e-13  -2.5543017318225024e-12  -4.5854273456774932e-09  2.8078525001173247e-03  1.1548849396115446e-07  -3.1322227521596764e-17  -9.0541265365316823e-22  3.4874079142179805e-20  1.2778489702805550e-18  -1.2839867930160807e-18  -2.1637529163489825e-19  -5.4383422614126498e-18  -7.9495541620822454e-14  9.8996097098340772e-11  1.8930782829842280e-08  3.3590417356929015e-10  -4.5648605258601202e-09  3.5341183270040027e-09  5.0214996893044265e-16  -7.1318293843859297e-11  -2.8128562770422301e-10  7.8466018517944077e-17  -5.1215402215096021e-12  -5.8628518626434030e-11  1.5253789415757983e-14  7.1950398079397034e-21  6.7292603044867772e-14  -1.7010265479004843e-16  -5.3768179849356948e-19  3.7217938006388481e-04  4.4804482124635554e-13  -7.4480235675327320e-08  1.1195843901696244e-11  -3.3115492228577355e-19  -1.0082358263444029e-18  6.7898902695040070e-16  4.6171971984344842e-21  1.7284951732895489e-14  -4.4516516018211487e-18  2.4568815118493413e-12  -1.5833553993737985e-17  -4.8597905822880520e-14  1.6124004949021946e-13  3.1918983643831130e-12  2.9288692822591494e-03  3.6041740348523965e-17  -5.4265933829953397e-19  2.1207271582989581e-16  1.2295264768844127e-09  7.6775055028969448e-06  -3.5153736384490568e-07  -5.8561438056243687e-19  4.5365097615074918e-16  5.6651327778826811e-10  1.2383564456575896e-14  5.9024141613660453e-12  -1.7535020800484922e-17  -2.5654248330057140e-15  7.0598007985813292e-14  -6.1450268633373476e-16  2.3464812399086718e-12  1.7470309587987059e-11  5.8122513227728838e-14  1.0474361103165539e-04  6.7625612872582210e-05  1.1999918822685712e-17  -8.8763282760166111e-09  2.6212124824485877e-01  3.0163926498718740e-11  2.5993576690016341e-03  -1.3605935448250067e-07  2.5653111627081427e-10  1.3223646947527566e-06  -1.1366583371214693e-18  4.9295212270961785e-11  3.6614704070517762e-08  1.8368933721553686e-16  5.4303002796418786e-22  1.6819988857963152e-13  2.5686833279832369e-08  9.6269107480567149e-18  2.5999569650242440e-13  1.1196671106049096e-13  -2.2499952004590359e-18  7.9768659697494825e-17  4.9938997940893129e-16  -1.0365562964637258e-08  -2.1007710153120997e-10  5.4427759151596769e-11  -7.6437194867499934e-06  -8.4848994077959247e-09  -1.8455712916856960e-21  -8.7528002595119065e-18  -2.1339605340242609e-07  1.7812971676704748e-09  4.8772560800905078e-12  4.6953491140334413e-15  -2.0257145679579510e-16  2.4485412881417350e-10  1.9084916200788828e-07  -2.2689586105965960e-23  -8.6030104635022002e-05  -3.4480693740641297e-19  -2.4919612620714951e-08  -6.9832496771609283e-13  2.9728775197534080e-16  1.0980457783366009e-20  1.6100773971949231e-13  4.7321472770331148e-17  5.8915907989574198e-20  -1.9416067838457791e-17  1.5556019637185838e-22  -1.2287743862090845e-13  3.1242946750404892e-18  2.7987616557006799e-22  -1.1544037761329061e-18  -2.2154808378620341e-17  1.0105860001903920e-13  -6.9477045937981592e-07  -2.1226727800366770e-15  9.7290558971238254e-07  3.2819302933200008e-14  -9.1635840439212330e-19  1.3395446784012324e-16  1.7344157792211165e-04  2.5105696425171699e-21  -7.6100145844466122e-12  2.4502140594127892e-17  2.2284340358715022e-12  -2.7110395896134318e-15  -9.5587953396412956e-19  9.2516963786289448e-11  2.2771793743045675e-14  2.9034424371273362e-15  7.3052065363632180e-15  -7.4137042537370074e-16  7.0354107301951399e-10  4.6829023804845628e-04  -1.2335804703549711e-21  2.2452654920240677e-06  6.4285967144803152e-12  -1.2770385641734540e-17  2.0846024842086916e-06  2.7087750354979612e+00  2.5320866980744037e-22  -9.9644350625650695e-17  -7.2708010790878195e-19  8.0012701138410240e-22  5.2016803217964403e-08  4.8591640842424899e-11  5.4742794941061679e-07  -7.4822467919933636e-16  -6.4077923169310630e-16  2.1465501027985088e-17  7.4546447117566178e-18  1.1506584264081339e-20  3.6680773978572600e-18  1.4118978343275817e-19  -6.0831013048225537e-20  3.5391531437439787e-22  6.2923720880513503e-18  2.3199699993654544e-19  -4.6283547420223032e-17  -9.1329836343907223e-19  1.4005877180526415e-10  1.1502213156620613e-12  -1.1628457865980014e-13  2.0953077011630614e-09  -8.0580588016636216e-12  7.4642894115344314e-12  1.4715472628471779e-09  3.6036353762257785e-11  2.1052672218817506e-19  7.3717393298431299e-20  5.3775738310937873e-12  4.4266291086318811e-13  -1.0852449800156524e-18  -4.8908126904559736e-18  -3.2337670609343526e-16  2.2705328433501674e-09  -2.7937361225671118e-15  -1.1165432774508929e-08  1.1909042169685437e-11  -1.2408842047022860e-12  4.0621541398745528e-16  -2.2855951808743850e-09  9.8805854848849745e-09  -1.7392892374236326e-11  5.7447954117353135e-10  -1.8406610787710855e-20  1.1174261406654242e-10  -1.3471818155153393e-13  6.4616127292299271e-07  3.4188414743152734e-12  -1.1678121158984616e-17  -2.5139146303692155e-19  -6.7040076637272908e-11  -7.3812187972775041e-06  -8.7520973750564600e-16  -2.7173874707668347e-06  2.4239241414993654e-18  5.6087116730955011e-16  -7.7810827221310418e-17  1.4854473897841570e-02  1.7192347792593962e-10  1.0171521744380468e-10  1.6041969537352433e-08  3.8070244202611361e-17  -3.8783262717235151e-17  2.6900657391498609e-13  2.1228430293961815e-18  2.0087289393548925e-17  -4.3792899743681228e-10  3.9147572938505712e-06  -1.5248567344119172e-17  -5.9099293293151069e-05  -2.5880101484267573e-15  1.3550147004284553e-09  -8.6610867834778812e-07  -4.4713569304160993e-03  2.5513127316526580e-09  -2.0386430102866379e-16  2.4044160962943274e-10  3.6014083172079017e-10  -9.7592634452692518e-10  -3.3068065388371771e-10  1.5878623350626802e-05  9.7214488286082552e-13  1.9114862240960609e-11  -6.7063756917541647e-13  1.0837626320977698e-07  -8.8257344843974929e-07  -2.9764146340948104e-06  -2.3739891349391093e-18  3.2922313170982969e-10  -9.1273055332335911e-20  1.6539078807250155e-16  2.0983320749028406e-09  1.1207007502299747e-12  -5.7461220569588000e-12  -3.6610846967557832e-19  4.6332828203167637e-11  4.1897735491310773e-12  1.5738390635140623e-04  2.7530316309287399e-14  -1.0052975494829353e-20  -1.9451346418628547e-19  -1.1408188914838724e-06  3.6400170521356653e-16  1.8251608980536967e-14  5.6054056108701315e-19  1.0554372214663147e-11  -2.6124455365614565e-20  9.6696064129281524e-20  7.9010030374722294e-21  4.4716382579236824e-03  1.2119631779726434e-17  3.5302029393614312e-04  -9.3632734860386934e-18  2.4065194949613468e-21  7.6923584914531675e-17  3.9651026737148075e-15  6.8584843436565903e-13  -4.3613206738624973e-16  -2.2029714194627200e-11  -4.9199212363848677e-15  -3.6070196202677917e-16  2.6716557399580222e-16  1.3875052476385489e-13  6.0800689630292582e-08  1.7499389641892234e-05  9.3829887549892101e-05  1.9757658751958408e-17  6.2619068048341719e-11  -4.7423886360694693e-17  1.6040590133022278e-22  -1.5365477606772470e-20  -5.2729601342258186e-14  2.8742378903691532e-12  -2.9756424381647023e-13  2.9101550222024893e-13  1.7149494420247116e-16  4.6398120770069063e-16  -1.7182622393656782e-17  2.0251510976222733e-03  -9.1715983031982268e-12  -1.8587383269816630e-15  1.0551999030766199e-08  -4.8739344225914932e-05  1.2534210558380412e-03  -3.1877911291756299e-04  3.1250858852100330e-03  3.8336655281236915e-18  -2.3413189714821361e-08  2.5544841237535572e-11  -5.3265124262728696e-14  7.9268286067068612e-12  -3.9126525665602275e-12  1.4105945026196264e-23  -3.5170435156317827e-21  2.9634692012899172e-08  -1.6477933015853064e-15  3.5373235445691596e-14  1.0994253515890824e-07  -4.4980685370293274e-17  1.0770340687509675e-09  7.7861415078918318e-18  2.4365082842618563e-09  -5.8905572970254837e-10  -2.6884356382254122e-18  -2.9666509788883787e-20  -2.8203313097708503e-05  -3.6855364412462054e-09  5.3595490739381761e-15  1.6966362737856316e-13  -3.8102436340971127e-15  1.0727587989831103e-22  -6.0485947533824537e-19  -5.2514380474635501e-18  3.9975401797718798e-04  2.3844214139044377e-11  -4.3135127854461175e-17  -2.1680247196880781e-16  9.5053833941030931e-14  -5.9275084226553344e-14  2.8694692451851681e-17  4.0111956479537094e-17  -2.1249773839371149e-08  6.5589602983792180e-08  9.2095385520917903e-13  -1.2869911045677630e-21  4.1130531563426182e-13  4.4412977931417892e-11  -4.5575533874827606e-18  1.1048222224491702e-13  -1.1618997675683038e-06  -7.7969161834705866e-11  3.6092538196808934e-12  -2.1416972355782376e-16  1.3907823314705145e-16  -8.6237557872890762e-21  -8.5414766512249256e-16  -1.4543978432827831e-06  -9.9391738468439612e-13  -4.1939012747330025e-15  1.6807047738664902e-12  -5.9425496435371925e-14  2.9097885810433783e-13  2.3381291121516237e-10  -8.0092296698606174e-12  2.1757280320949647e-17  1.8736509398277335e-13  2.4263182836421407e-08  -9.4443655922025290e-10  1.5458133907651713e-09  -9.1516225494689098e-09  -8.8073260733896504e-08  1.2949186755817205e-09  2.6356683118725193e-09  2.7154056883044909e-16  3.2016523203346909e-16  2.6063990539935603e-06  -9.7453729996228504e-20  9.2288785382620858e-05  2.0964376828608811e+00  1.4831169094430106e-20  1.9250031129088433e-16  3.9134750895346660e-08  1.2129723589338969e-12  7.3086745474350413e-06  -2.8657579223071339e-16  -1.7988879562073523e-18  -6.2231189517994104e-18  -4.0113450058634259e-18  1.2273732936260198e-17  3.5517256346738221e-10  -1.8216016054352834e-10  1.2200812934208398e-12  -1.2434741857012626e-12  -6.0205701636547640e-18  1.7195546296667414e-07  4.3837137935258472e-07  -1.4318967461415136e-07  5.5844106656039215e-11  1.8787475191223866e-16  6.5612232800443530e-12  9.1889786054297879e-07  3.5237659301598444e-08  9.3864111167526965e-07  8.4401070975873137e-12  1.3549344089532812e-11  5.3103730060117349e-01  8.3048723027652726e-20  -1.1418750066759672e-12  8.8195074684709767e-11  3.5422477979039532e-09  6.1843159432887075e-16  2.2773948882056437e-13  2.4350170025401215e-19  -8.0931843870576676e-04  -1.4828952970186994e-08  4.9549664298560124e-15  3.1722985164827381e-08  1.5845357772114786e-11  5.7161613419065361e-18  8.6340701993165253e-10  6.1306359730966884e-13  1.5361867885290595e-06  1.2645821375556284e-16  1.4214821631384454e-16  1.1537760549785715e-14  4.8569532659614060e-12  -9.2639457130313320e-20  1.0681696595009883e-15  1.3488469770542335e-17  1.1037836379137066e-10  3.0520802849735165e-11  3.3370492339353062e-08  -4.8571073333048961e-16  3.8245321945299180e-10  4.4090408682548809e-11  -2.8670648780480353e-19  1.4449834136494127e-02  4.0502338402344466e-17  -8.4134029811876682e-13  -1.7848098315401770e-13  1.8943727755048060e-09  2.9283861687876136e-08  3.5474567548893920e-18  -4.0778024015147031e-11  2.2789757699642247e-03  4.1427800798852963e-15  1.5782030741898351e-11  2.6878960148223771e-13  -5.1048599008984801e-15  -1.3657616621190526e-16  2.0420558925841263e-13  -9.6371655282629408e-07  1.9896832003741951e+00  6.6522583548345137e-12  5.2386214217008089e-12  2.9785061244101239e-22  2.7704525549864797e-11  -1.0038062971283627e-10  1.9585154343386614e-07  -1.1868936966291882e-16  -2.4985041514113558e-16  -2.3321251489876515e-17  3.4081748316048632e-08  -1.4923726884632853e-19  -1.0716845488826393e-19  1.3821828657918008e-19  -3.9035902844002842e-19  1.5778657338500295e-08  -1.9443200221125384e-08  6.3429111701552138e-08  -3.7406600878280288e-17  1.0395117932082348e-08  1.3658698969246812e-14  -1.0275136887979683e-10  -2.9398542789980285e-16  7.3793078160902075e-06  2.2252689468673392e-07  -4.1757827578975349e-11  5.1774853480397731e-13  1.6291722222459774e-12  8.2716476082974185e-11  1.5348619429150296e-02  2.4079427718048721e-04  -4.9039798434634975e-07  -1.2062529914460341e-09  5.1351001995077249e-17  -5.2394174530659947e-06  -4.0039805322356428e-19  1.2358920643207454e-17  2.6965699987101830e-17  -5.5958432278921677e-18  -5.5661837983882278e-17  5.6402850608002531e-17  -3.7126323473234183e-21  2.6931474046774520e-08  9.9391241431418854e-18  -2.4819526806495717e-20  4.1443205983983589e-18  1.0633709952718541e-15  7.8439235847080327e-16  -3.6777415356655143e-11  -1.4823486616827902e-22  -9.1735825467701285e-23  1.9691601419233552e-16  3.2304501023690374e-23  -9.2067187443885621e-09  -6.1153610467616100e-08  1.1180769280752062e-06  5.4026863174600204e-05  1.1983784611323246e-14  5.8474781344889252e-06  -3.3630671132194594e-20  2.3573076261781749e-09  2.7298966066069518e-13  7.3827928776129831e-12  -3.2693682486867832e-13  3.1643033498318160e-13  8.6701519647583006e-09  -3.4752063544213387e-20  -5.2165061491550737e-20  4.2099513141980423e-18  1.2199536745625511e-19  6.8867754807113939e-18  -2.3334514991112407e-15  -1.0679272315103089e-09  2.3482286498350073e-11  -8.2036527476808703e-19  -1.7920199711469084e-10  1.3303581597041418e-10  2.6949531583671166e-10  -1.0247264884027462e-06  4.8192938076163269e-11  4.1091535828917244e-18  1.7333618905412890e-16  -7.7653086405808214e-17  -3.9530993204684189e-15  4.4726608093637595e-14  -1.3193460465384991e-17  2.8108082051947605e-18  6.0214073444755837e-16  6.9197746855844579e-13  8.1298199981470529e-14  4.0771437420053233e-18  5.2234979016024467e-02  4.4930735458815884e-03  -2.1708523378969769e-11  1.8012669420406442e-19  8.9730391222593373e-18  -1.1230684798766358e-16  6.0456882229207595e-18  -1.3625111153221896e-21  -6.4806468672120540e-17  -6.6130314628061310e-21  2.3434719839198330e-04  -3.7370161650074622e-04  -1.0306283515313126e-15  1.9118221114947336e-15  -1.3442278165580213e-13  -6.2443851326966210e-18  -5.7490192735131258e-19  4.9488719483368861e-13  -1.5460284859044492e-08  -1.2773288965513219e-09  9.3481544638720391e-07  1.9141048571169494e-11  1.2221506678105305e-06  7.4253452212425921e-05  -7.0378925111932282e-07  -1.1408557628129526e-13  1.7626624693218370e-13  -5.1971519070576310e-15  2.1767727167437738e-15  -6.7815033830739413e-17  2.7810588300910481e-18  3.1941647684327390e-13  -1.3111007498532591e-18  -4.6003846307141831e-21  1.1998135570158929e-13  -1.3025449071758589e-16  1.8719211418503303e-16  8.4556233048048368e-22  4.3305835555418505e-20  2.6160255934809637e-12  -2.3721395810678799e-19  3.4446083463515620e-12  -1.2080282379456533e-15  1.5593746304780868e-13  -2.5652426239162175e-16  1.9941621329220963e-08  -3.2659839418834420e-13  -1.1835107990643433e-11  -7.4401504634987008e-14  -1.9018480673142088e-19  -8.7395803398967154e-20  -7.4513561298349429e-19  1.2028912889275591e-21  2.2693753302008016e-20  -6.8128709120151788e-21  2.4541153268784133e-13  5.6413941000500350e-11  -2.3267900003245667e-15  3.2067848488479098e-14  -1.8984771599851376e-10  -2.5996063756251115e-09  -3.4183856455815680e-13  1.1453207347615061e-12  8.4789580113215902e-11  -9.5944771354769805e-12  3.4477059806008324e-12  -6.0838071231667240e-18  3.6711344467258717e-18  -3.9779818648422208e-16  -1.4211205199700754e-15  3.2646468615999410e-16  -2.5647647458854781e-17  1.8339869335846719e-04  -1.6229156105349131e-11  4.5148776217637070e-17  1.9396659019366466e-06  5.1573422006328501e-13  3.0067758053516571e-13  -4.9937127220148264e-16  2.4293335383086904e-10  -5.2949860809955147e-05  5.3646182891242512e-23  -1.3638885718074340e-24  2.1843307166993460e-06  -4.0184317861489459e-21  1.9391367666895215e-17  6.2891389413548450e-05  -2.0302694601731647e-03  5.0161285016896314e-04  2.1104821839008735e-18  -1.1995590184388812e-16  1.7142088156986455e-02  1.4640872327776296e-09  -4.4863183066067335e-19  6.6404805330096458e-03  1.2027893841049179e-17  -3.6093544646157010e-22  2.2676486407534896e-13  -3.0221844219101542e-20  -1.0486080411330350e-16  3.4012751435888781e-11  -4.4740590966969989e-18  -8.1578232694150792e-13  2.0234217836592336e-17  1.8479079086037100e-05  2.0371766808800383e-11  8.7196997868557692e-04  -3.5828026713700629e-10  2.2885081955719038e-17  -2.3866272953973143e-05  4.5109499103426630e-14  3.4897513316798913e-11  -1.0837279932154165e-18  2.6871584002044541e-12  1.2600426881714318e-18  -1.4216516751806422e-19  -3.2527126533399409e-11  -5.8121915227247862e-12  1.5184525477999905e-17  -1.9577734742819595e-11  4.4452539598655818e-08  -1.6266461557300281e-08  -1.3519945450865125e-06  1.9526600716795059e-17  1.9235791463834500e-14  -5.2256913853534184e-12  4.1966967382301983e-12  -1.3167468801615006e-06  -1.1910482027002605e-16  1.2593612045357184e-16  6.7855307122310582e-17  4.3929913715753178e-16  2.8268775963625070e-14  5.9915049621404080e-17  3.5334428739363109e-18  2.0117480097159670e+00  3.6556126967218464e-05  -1.4710482183837476e-06  5.0034836235461254e-08  4.4596499706713289e-07  3.3772534921875654e-06  1.5430700860613355e-08  -5.7898940370219300e-12  1.3658915577472795e-12  8.1426821121819184e-07  3.1556178954726826e-21  7.6532547977692884e-12  -1.7618704142741240e-16  4.7729067229763870e-10  -7.4731204968867676e-11  -3.2709866838206373e-10  1.0587989812224310e-06  4.9457153234949239e-18  -3.9771307054220696e-19  -2.3001207622033703e-10  5.8378458673976324e-12  -5.8252409984469562e-14  -4.8971908891359969e-18  2.5088359554893851e-16  4.4610561106850136e-09  -2.2849760010001640e-09  -2.2285200375603016e-18  3.9531462803718229e-19  3.4921504225157679e-16  3.5618247969990513e-11  -1.3372613209992417e-12  4.2273156528433962e-11  -2.1807464920357726e-12  4.2685086256710157e-09  1.4832177707513009e-11  -7.7142151760372367e-08  2.7397954625750912e-21  -1.5443542060603321e-19  -2.4922622249604557e-18  3.4998618461354516e-12  5.3462137575100606e-15  3.6690563612843435e-19  -1.9326904461235403e-20  -7.0161433452326120e-21  1.1207389030557287e-19  1.2659420784784674e-10  -1.1389981402729653e-12  2.2299861494609085e-13  3.2760510635691618e-11  -1.3733152908316545e-09  -6.9676744557849161e-10  6.1314422109343689e-17  -9.0822163365709547e-10  1.5365823045581297e-16  -4.2708458760900921e-08  1.6731084108802192e-19  -5.1449003806066267e-16  3.0169947640916585e-16  -4.4970041747250387e-16  2.2707024125588018e-16  3.0709784791383145e-15  2.7365268171003413e-13  3.9119263256731040e-13  1.7804346440691366e-12  -4.6701544709682885e-14  -3.9265663646185633e-12  -1.4689901669095423e-20  -1.6612838483310134e-23  2.0478821730327164e-17  5.3332654038069704e-17  5.0314643332461684e-22  6.9122766898627859e-18  -1.0229731917668818e-19  -1.9139981852272367e-19  5.9797603117537307e-17  1.9649749060292642e-17  -1.3163540558051823e-17  1.6743853932439235e-18  2.3190010898783941e-17  -2.5505012265732391e-22  1.5209041302875644e-18  -1.0515802805513561e-20  -5.5782582591419191e-21  9.4413840303710784e-19  3.4125494919901756e-03  -4.3346325572473222e-09  8.6869097176821003e-09  1.0477195804454226e-10  3.3514666596757945e-19  1.8143544900290250e-18  4.4814742807405737e-17  4.9792166863437666e-22  1.6699495704510944e-08  1.4380626485026225e-12  -1.8461380776071949e-18  -4.3218537922510957e-07  -1.6686785434846317e-20  1.7489584459785014e-09  -2.6928070856446794e-15  9.522076861