<?xml version="1.0"?>
<VTKFile type="UnstructuredGrid"  version="0.1"  >
<UnstructuredGrid>
<Piece  NumberOfPoints="3002" NumberOfCells="5870">
<Points>
<DataArray  type="Float64"  NumberOfComponents="3"  format="ascii">323455.6100285493 6048753.88242996 0  323455.6100285493 5954782.59950515 0  405920.1480513444 5954782.59950515 0  405920.1480513444 6048753.88242996 0  405920.1480513444 6001768.240967555 0  323455.6100285493 6001768.240967555 0  364687.8790399469 5954782.59950515 0  364687.8790399469 6048753.88242996 0  364687.8790399469 5996367.117560402 0  323455.6100285493 6025261.061698757 0  382226.6271443229 6022560.499995181 0  405920.1480513444 5978275.420236353 0  323455.6100285493 5978275.420236353 0  353897.8957397301 6022560.499995181 0  344071.7445342481 5954782.59950515 0  385304.0135456456 5954782.59950515 0  405920.1480513444 6025261.061698757 0  354379.8117870975 5975574.858532775 0  381582.8168806895 5978840.396198289 0  384950.2598624413 6001768.240967555 0  344643.0480768835 6003429.02033719 0  344071.7445342481 6048753.88242996 0  385304.0135456456 6048753.88242996 0  339717.0321562298 5986078.187627405 0  337515.036058786 5969821.016310448 0  368062.2614420265 6013076.224998265 0  368062.2614420265 6032044.774992097 0  393987.6142659165 5988729.699941677 0  405920.1480513444 6013514.651333156 0  392856.2821527076 6034589.119828064 0  393514.9611654527 5968369.338068204 0  339399.8087404341 6032061.482581838 0  323455.6100285493 6013514.651333156 0  374995.9462927963 5965504.865595459 0  354379.8117870975 6037976.901948514 0  338123.9088969378 6017031.529131207 0  367397.3120126425 5982072.559192053 0  351882.5752379905 5991998.990225234 0  376945.425450199 5991232.708824487 0  392265.0061656896 6013300.936254065 0  357029.7426706699 6006608.947964352 0  380093.6207558212 6036880.127749795 0  323455.6100285493 5966529.009870751 0  405920.1480513444 6037007.472064359 0  405920.1480513444 5966529.009870751 0  323455.6100285493 6037007.472064359 0  333763.6772813987 6048753.88242996 0  405920.1480513444 5990021.830601954 0  323455.6100285493 5990021.830601954 0  362879.3643765316 5966837.319094267 0  348367.6438548031 5965604.161682394 0  334493.1989038612 5996935.948935225 0  395068.5043068817 6023875.372615605 0  348216.0324377587 6013504.844950221 0  379305.9090074943 6011603.390019651 0  372523.5158233726 6003480.000732267 0  395435.2039568929 5999384.346358113 0  395612.080798495 5954782.59950515 0  333763.6772813987 5954782.59950515 0  395612.080798495 6048753.88242996 0  374995.9462927963 6048753.88242996 0  374995.9462927963 5954782.59950515 0  354379.8117870975 6048753.88242996 0  354379.8117870975 5954782.59950515 0  335074.5981535012 6007206.680367459 0  391925.2695590468 5978591.908877409 0  371969.1707190623 6022560.499995181 0  383872.162544519 5969415.106147043 0  358038.7139835292 5984533.09712744 0  369699.869182786 5973102.2359358 0  369841.9126663716 6041099.453006387 0  343176.7440329155 5994428.220622956 0  362933.5332293962 6024385.235173292 0  330640.1760208776 5984148.625419154 0  348684.7494355051 5983110.856817525 0  399094.9690929834 6007537.420809742 0  345447.6324516311 5974162.84917082 0  332859.7749513451 6039150.972778062 0  344517.044630671 6024057.945416138 0  332973.1214415312 6025037.914505113 0  341428.0126373461 6040493.820728126 0  385874.264691618 5992757.40885039 0  350337.3662538711 6030387.535304286 0  359887.2373602368 6016186.250094838 0  377097.8989316926 6029115.217702097 0  338917.7109078235 5961484.016839475 0  329495.5261590715 5972402.215053552 0  336644.7280634616 5978216.610794215 0  330688.6715098422 5962480.256438018 0  359899.8039476132 6031963.415584587 0  399746.255941904 6030426.523907755 0  385511.6875144855 6030368.508996127 0  387377.735783329 6040763.821024337 0  398832.192399829 5974431.100387635 0  387992.9498994246 5962432.032572681 0  405920.1480513444 5984148.625419153 0  364925.7641745284 6005782.953640081 0  361769.877068089 6041226.651684469 0  398452.9199001931 6040850.732439541 0  398946.6205243983 5962252.502309519 0  362305.5577564609 5975984.89789681 0  356822.8065216601 5998470.186307689 0  386900.7115926162 5984820.732438302 0  329528.0119279922 6032067.230024892 0  331139.6939744562 6013813.572928222 0  398457.5876798834 5982541.698799337 0  405920.1480513444 6019387.856515957 0  398685.5166750694 6017257.578706384 0  348587.9424884976 6042755.309150081 0  369841.9126663716 5960143.732550304 0  380149.979919221 5960143.732550304 0  359533.8454135222 5960172.384722514 0  377147.8814772839 5972649.581024994 0  341756.3455763521 6010124.092444684 0  355615.8176864882 5966311.193813809 0  369144.4338274571 5989807.770003954 0  375185.9047422862 5983510.422041401 0  323455.6100285493 6007641.446150355 0  391856.7960121195 6005888.565703365 0  371978.0245217044 5996361.134308098 0  405920.1480513444 5995895.035784755 0  378877.1880032702 5998073.745937059 0  359056.6617417652 5991643.489540118 0  399278.8743430426 5993436.466134224 0  386116.8775939071 6009922.097099247 0  323455.6100285493 6019387.856515957 0  388994.7833819839 6019826.789191471 0  348897.6207366391 5998116.079250046 0  345456.3301153719 6035064.814295612 0  323455.6100285493 6042880.677247159 0  334124.3013408988 5990072.953472659 0  377097.8989316926 6018059.782440464 0  323455.6100285493 5995895.035784755 0  342871.8474798963 5980154.238874755 0  373596.9793292385 6035659.183886081 0  380149.979919221 6048753.88242996 0  376327.9292813152 6042294.581731233 0  329163.3548105369 6004704.843558955 0  350303.9432136903 6007093.032074522 0  383982.6552804571 6015912.664375832 0  345515.490569988 5988567.439252969 0  379019.812877927 6004678.052169549 0  365541.9137639466 6018750.691894444 0  349225.7781606728 5954782.59950515 0  352493.3399767278 5960815.406895458 0  363683.8130458911 5986976.225872464 0  386666.791301207 5975084.583584332 0  368937.6553346639 5966171.092344863 0  400003.9882214358 5968352.273777306 0  328776.0063842635 5992958.433193355 0  339958.4428758043 5999572.344589042 0  354577.7732363954 6012555.454074449 0  328609.6436549741 6048753.88242996 0  382053.0280278458 5988228.496807038 0  330708.6817934912 5978212.973348036 0  372084.7734679543 5978495.086505585 0  358568.2738174705 5971419.415228934 0  328931.2672829705 5998832.905089681 0  323455.6100285493 6031134.266881558 0  405920.1480513444 5972402.215053552 0  405920.1480513444 6031134.266881558 0  323455.6100285493 5972402.215053552 0  405920.1480513444 5960655.804687951 0  323455.6100285493 5960655.804687951 0  405920.1480513444 6007641.446150355 0  323455.6100285493 5984148.625419153 0  405920.1480513444 6042880.677247159 0  346648.7613474604 5960023.05127712 0  342415.3891593561 5966358.988213831 0  350507.6510228226 5971111.740321856 0  391773.9667214506 5994456.117700323 0  338875.8905424621 6026088.827345025 0  361429.1735454847 6010511.262533597 0  389395.7028803263 6025805.543023561 0  392895.6464692951 6043315.288173481 0  332846.8296575367 6019296.633131165 0  373337.4404588729 6009693.515402478 0  336544.3064612215 6043648.151399015 0  348610.2411382072 6019567.839754772 0  381943.4597763228 6042183.394750732 0  355630.0631288611 6028071.82801846 0  363941.5238882306 6035967.852698964 0  328179.67203552 6022271.326978176 0  401066.2857736665 5998807.415073814 0  344387.1099621175 6029612.545574771 0  393435.2235156003 5960233.556458537 0  400735.9970493424 6022675.638064924 0  393708.5772019727 6029179.837160029 0  400609.0696943338 5987857.851798974 0  361753.6614662939 6001152.171757337 0  400766.1144249197 6048753.88242996 0  353363.0524357285 6002630.165620538 0  343248.328463803 6018790.640008039 0  356419.8105951758 6043365.392189237 0  390234.385899412 6000759.497967276 0  368336.1168551637 6000220.532318851 0  328609.6436549741 5954782.59950515 0  387520.8298169724 6035372.992507171 0  400588.0280660195 6035823.299583429 0  329021.6598427091 6043194.252697862 0  393371.710206733 5983576.325812268 0  393638.9721728675 5973623.513063556 0  371727.9212466564 6017113.044457142 0  364687.2762977295 5959941.212693035 0  374995.9462927962 5960346.83186599 0  369841.9126663716 5954782.59950515 0  400766.1144249197 5954782.59950515 0  338917.7109078234 5954782.59950515 0  369841.9126663716 6048753.88242996 0  359533.8454135222 5954782.59950515 0  390458.0471720704 6048753.88242996 0  338917.7109078234 6048753.88242996 0  390458.0471720704 5954782.59950515 0  359533.8454135222 6048753.88242996 0  380149.979919221 5954782.59950515 0  349225.7781606728 6048753.88242996 0  339867.4956514095 6005339.817053361 0  333737.9460226952 6002130.523287664 0  336955.8140048417 6012008.440073739 0  377097.8989316926 6023232.32559834 0  371748.9790486701 6028016.629988787 0  338146.5171983215 5993298.164761053 0  355016.8390227688 6017610.913088997 0  393953.1528190996 6018968.416019509 0  335185.8133477239 5965142.63403323 0  328616.6041642396 5967263.80307608 0  380314.9487662361 5965460.362415641 0  354622.8993466098 6032976.142863722 0  328521.4725131759 6027215.026914048 0  334465.0783479523 6034070.534389696 0  328123.6212682287 6009699.206425843 0  381889.5169855529 5973936.741901617 0  359122.3484437474 6036790.002992895 0  386341.6533148278 5979963.279841923 0  400798.2159679119 6012477.871311778 0  388538.3765260249 5967461.292146791 0  340833.8784183678 5975728.708105717 0  355307.6239213505 5988552.151815021 0  362181.4274823388 5981261.937800813 0  353784.0322742948 5981044.538811012 0  358045.1698423899 5978741.391518688 0  328423.7350325213 6036912.015930048 0  366897.6876966125 6027277.723668203 0  347355.1745641421 5978532.307510624 0  376820.5060332146 5979033.270735624 0  349378.1778589479 6024378.632814493 0  327189.2282939323 6016451.253924556 0  338433.8773236172 6036753.902881841 0  350141.9760340559 5987605.90026687 0  363794.7083927878 5991713.491814731 0  350325.1285660182 6035273.515460094 0  382355.9358007369 5983507.499638396 0  327107.0747437811 59811
[...]
<PointData  Scalars="f_5443-1"> 
<DataArray  type="Float64"  Name="f_5443-1"  format="ascii">-4.3495960755373250e-23  -1.3958694033987224e-22  -7.9726769702740798e-18  -8.8342192192183882e-22  -1.0204019570612433e-11  -2.6480797437353257e-17  7.8509220312816282e-17  1.1239522332109220e-18  -7.9775777455814572e-05  2.3581922688785745e-18  3.3154699973399870e-11  2.6496040154925541e-13  3.0995956375406763e-18  -2.6221489877289972e-10  -1.5519905329671807e-19  -5.3280217158708707e-16  -2.1720287494971857e-15  1.0178620443760405e-11  -1.8434930519988508e-07  2.1281665873569237e-05  2.7783249139897793e-09  1.1312307285305821e-18  -3.1916313788034478e-19  -4.2141585773816064e-13  -7.8044164447683843e-19  -8.4792240093662539e-06  -4.1520027249551610e-12  1.0065474547526100e-07  -6.0536572852387216e-14  1.0800504188360762e-15  1.2717889979202986e-11  2.7179511258678534e-16  6.6270428634441010e-17  -3.0007294991150981e-12  -1.7156073064835932e-14  3.9180607103371473e-13  7.8702745794999119e-07  -1.1975386237488947e-08  6.9393061545430660e-03  2.7615952106706983e-09  7.1085142002548939e-06  1.2813898263913078e-13  -2.6253671561941261e-20  -1.3796025412582166e-18  1.2032830047792477e-14  1.4961885556858380e-19  -1.3870769984436905e-20  1.6420121674272995e-11  7.4408830024559051e-17  5.5426477057866231e-12  -1.9295300829955760e-16  4.4672743058226793e-13  1.0017645385175440e-13  -1.4361494376148862e-11  9.9173038045347952e-10  -2.5239167828956311e-04  1.4517096844540035e-07  -6.4338000691521772e-17  2.9226549069201271e-20  -8.9094626239268880e-22  -6.7490440902622276e-18  6.3540914496113804e-17  5.4330556137605112e-18  8.9760337916387663e-18  -4.4971832302489643e-13  2.4772265420453733e-09  -1.2588295373455926e-09  4.0367987904041225e-10  -2.7575610476985863e-09  4.2819382730439385e-10  -4.8684159126885700e-15  -4.0101993296900235e-10  -1.5396624867580800e-09  4.1629622833849531e-16  -4.4594816641294665e-11  4.9854989389844373e-11  -9.7937400055590685e-14  3.9658705041536280e-20  1.0099967528744887e-13  -1.4401527364620851e-15  2.5419162840761054e-17  -1.8147916567240498e-04  -1.5247475612303928e-12  -1.0264472257481488e-07  -2.2999741262210918e-12  4.3898516858305631e-19  -6.0768807590418476e-18  3.8948609945938512e-15  -2.6386088141596269e-20  -2.3597491984613365e-12  -7.9419615802927601e-17  1.9764261385071712e-12  -8.0302776775320980e-18  4.7648238619292305e-12  1.0186664209130564e-12  9.1560458458828611e-12  -1.6840333512391718e-03  -5.5282713396312603e-15  3.2798180254886784e-18  -1.9794130172352306e-16  1.6609182550513281e-09  -4.1474759783973402e-06  2.8063933187610282e-06  -5.7490724018944622e-18  4.5567140227099036e-15  -5.2541536708958753e-11  2.4849217027726061e-14  1.2935084341244877e-11  9.6706665505019834e-17  1.3504336814148706e-13  5.8513038683254446e-14  -4.4356325963956278e-17  -1.0967375722086920e-09  3.4845811467350584e-11  1.6560281439528488e-13  1.2282874679260151e-04  1.9314667519514688e-05  1.0761281089711296e-16  3.3516510277777465e-08  4.2141517518177837e-02  3.4567198047533547e-12  3.9042119848293521e-03  2.9451625912873171e-06  4.2708957531960072e-09  -7.5563187966032689e-08  -8.9074185086482377e-18  8.0195802741385506e-12  6.1739699282031322e-08  -1.6989822252270151e-15  4.4493210325622967e-21  5.3474729533614687e-13  -1.6326911277524468e-08  1.0892174418559177e-16  7.0350853076414908e-13  -5.3007930913658158e-15  1.0556732475856236e-17  -2.9173750207401905e-16  1.3616005289022292e-14  -2.9396462658400211e-08  -7.3817372355261456e-10  1.0299216565305241e-10  1.0539118961512883e-06  -6.0150162923507315e-08  7.5442261092551537e-19  1.7454819365477481e-17  2.7330341669680600e-06  -6.9659137873908888e-09  -2.5515721515519256e-12  2.1322979260841066e-14  -2.4086482356906932e-15  2.1927564832002293e-10  1.7938382607361213e-07  -2.9485117627465868e-22  -2.4108583368930166e-04  -4.3785653260259643e-17  1.0676205593815155e-07  1.7573271635221083e-14  1.4490170440793066e-15  6.7204995735421600e-20  1.4573209224685967e-14  -1.1377896651967618e-16  3.7358594464124699e-19  8.2131913159602265e-17  8.7736252223556820e-22  -5.0013608003724143e-13  5.6189701973242739e-17  2.0574834352545888e-20  7.6527781715544995e-19  -1.4430680158192916e-16  2.9072931000396536e-13  2.5035302694765308e-06  -1.7277809853693994e-15  -2.3498139937553274e-06  -6.9332283963433582e-14  2.4776342203926131e-18  1.9723125415518151e-15  8.4065516160091403e-06  -2.5886346569264148e-19  -5.1054677394422702e-11  6.0470203729211259e-18  -1.2404221396297088e-11  -4.0804308362774999e-14  -4.3789208022652406e-18  -1.1115107437785715e-10  -1.7068765189899685e-14  -1.1290629146823620e-14  -7.5087825756895244e-15  1.1551602386245333e-14  -1.3502582210431632e-10  3.3835223992194076e-04  1.6661613552133099e-20  1.0994033610794477e-06  9.7413138282280174e-12  1.0936992912878351e-17  -3.3613390907987888e-07  4.7936451339666331e-01  -3.2828043795969101e-21  1.2362620617253393e-14  7.0978517437186625e-18  2.0769559788526748e-21  -4.5889373118677030e-09  -3.4321601047492036e-11  -3.3986693751183013e-08  2.3767762188320230e-15  2.3598545186365507e-14  5.2686029370932183e-17  -1.8009579218704586e-17  1.6065409171100467e-19  -3.0449753723334469e-17  2.0116028062802429e-17  -3.5883603001290225e-19  -8.4802577172376300e-20  -6.3830866270430359e-16  -1.8323771839733887e-18  1.9118373728078482e-16  1.9227537130139997e-18  1.3813561617063728e-10  1.7515763498804920e-12  -4.0755688378116581e-13  6.8973984929480009e-10  3.1594740671389714e-11  1.9402516958535780e-11  -4.2602088597879101e-09  -9.9951128755146997e-13  -4.0457163755789926e-18  1.7990747750283520e-19  4.5665702213832535e-13  -6.4034579930056496e-13  -7.4196173484498054e-18  3.2547438423370124e-18  -3.1031553442078304e-15  4.3359692158546999e-09  -1.1690378808346475e-13  1.6939377431869261e-07  -4.6592749911586354e-12  -4.9487510488546272e-12  2.8242753281818250e-14  -2.2971707517074907e-08  8.1064224938510278e-09  -9.0371475805058299e-11  -2.0922641032236965e-10  -1.1730298143108498e-19  -1.2466645586270174e-10  -2.1001699013739452e-12  3.4857314203421284e-07  -1.0118245508988073e-11  -6.8770894714997244e-17  -1.7150910006345958e-18  -1.2529698290987085e-09  7.9210234616546204e-06  3.6792399751795270e-14  -9.6035707242455946e-06  2.1736599889589344e-17  -1.1791110760170960e-14  -1.4767139804796493e-15  1.0693653844569488e-03  -4.6325660881176222e-11  1.2345494034972445e-10  2.1503203185014316e-08  -2.1483738663751033e-16  4.3391813830448316e-16  -1.9290787857876629e-13  9.1180565603670058e-19  7.1818525728827773e-17  -4.3931692624775991e-10  1.7711733867646065e-07  -7.1377535512283894e-17  1.4588112483421734e-04  -2.1197317672746721e-14  2.8008917570571600e-09  5.0709613679753334e-07  -5.3049027788638391e-03  1.5245546392445025e-09  -4.2272186986506553e-15  -2.0420015819926611e-10  3.2808229675207587e-10  4.2818962433199962e-09  2.2102110288800535e-09  -7.5658716726733527e-07  -2.0183342470107344e-12  4.7897603503565187e-11  -9.3471892564868633e-12  5.0217537559977963e-08  -3.3928128627370658e-06  -5.0333986349255003e-06  3.1503606615838730e-17  3.9688128814783184e-11  2.6427962637361541e-19  -3.4625541988554850e-15  -4.9702130173724423e-11  4.0924666478207817e-12  2.6395904190166155e-10  -1.8600532235840769e-18  2.4834926921887326e-11  1.3952484817425498e-12  -5.8734883604257718e-05  4.2221077538067070e-14  1.6651209539490993e-19  2.2794141223099606e-18  9.1278013567921996e-07  1.8347638642565321e-15  3.5682143726878417e-14  1.1002965322922929e-18  -2.1600826160708059e-12  1.0912164446567299e-19  -1.2787414652170346e-19  1.1236382822552624e-20  1.5583771435228658e-03  -9.3827782162435380e-17  8.1572686791714846e-05  3.7559528242972663e-16  -3.7298368096954707e-20  -1.8540883866134500e-17  -1.5845919605244966e-13  -1.2684739757224247e-13  1.2476035080428257e-14  -2.7205859754099869e-10  5.9479778757260215e-13  -4.0548019456281688e-17  -6.6692220217535553e-16  -7.6777748837123684e-14  -2.1636056239975700e-07  -9.3195612228367684e-06  4.0275712108750652e-05  -8.4108392677084919e-17  -4.0438744502154001e-12  6.4322568220270578e-14  -3.0977563729606363e-21  1.3320563388118719e-19  6.2435992655458240e-13  -8.6561852543203681e-14  -3.1062412040427635e-13  -2.9631254037207123e-13  -1.4282247300330802e-15  -7.6308356892322283e-16  2.0386537549749776e-16  4.7355602771269187e-04  1.1834317307256053e-10  -3.5355940816439999e-14  1.0958913309890481e-08  -1.0365082838885031e-04  3.9341033983385926e-04  5.0733491348156916e-04  4.3062318432718844e-03  -4.0019152281926539e-16  1.9809389587109344e-07  9.4220004073292543e-12  -4.8466565143551052e-14  -5.6455485450853735e-13  -2.5018130707767980e-11  1.7056620540935707e-22  -3.6571249885671098e-20  -8.7740129440728552e-09  3.6328103000064110e-15  9.7805378490641495e-14  3.3217231896116869e-08  2.2138628230801701e-15  -1.1696786274887857e-09  1.1759750472919328e-16  -2.3523681234469847e-10  3.6453148709089024e-09  2.0925282783715326e-17  -1.9448313422367973e-19  -1.5253782814732010e-05  -1.2964224211073842e-08  1.8870926259842411e-13  -2.7445933134065185e-13  3.1071340960312655e-13  -2.2549161614677077e-20  6.0600712338916186e-18  3.9023341446835309e-17  -9.8971573036323123e-06  3.1748268469395816e-10  1.5732336292830653e-16  4.5002899969848890e-16  8.0693622712167304e-14  4.2389683077987074e-13  2.4131097290848799e-15  1.9294286490298375e-16  3.7190865215010233e-08  -4.9886251465736902e-09  1.3261795839489882e-12  6.3728356024253095e-18  9.0732034105409663e-15  1.5794471903709366e-11  5.0261555111160214e-17  -2.3123059138460151e-13  -8.7164237963081417e-07  -1.0626206582803434e-10  1.0938000339134740e-13  3.0242971212194326e-15  -2.5224813395020875e-17  9.8662834025103403e-23  9.0750489559460758e-14  4.2554802336409997e-06  -6.5219816192971678e-12  -4.9339897739853244e-14  -2.6208253330346370e-11  -6.2027113374448409e-13  -1.2583605560780794e-13  2.8785974647884661e-10  -4.5318967584105295e-11  -1.4066631656272689e-16  1.5015381665994982e-13  -7.7960705252887048e-09  -9.2383883369878220e-10  -7.2251734281285563e-10  -1.9107467667549545e-08  6.1890247627595708e-09  -2.9114893008795881e-11  1.6783723925225573e-09  -5.3611733431751767e-15  -4.3596181775896228e-15  2.4665161023066291e-06  9.7511590654990398e-19  -2.9268658645258293e-05  1.1065264947046172e+00  -6.4124780904879157e-19  -1.4714288719908054e-15  1.0107655697257962e-07  8.5449975947431152e-12  2.8944073029993521e-06  -1.0124044006190010e-14  4.0271207236226031e-18  1.5780824713640820e-17  9.6235402044946408e-18  1.1973075226738184e-16  3.5655051030343231e-10  7.1339024506583914e-10  1.5851006811662138e-12  4.7658712216747716e-12  1.5479615330130230e-17  -3.5513259907516025e-08  -5.5411177609468587e-08  9.7135517895603610e-07  -2.4502821739668877e-11  4.8764210878336587e-14  6.7710355685177931e-11  7.2299405550671873e-08  -3.9549070911857055e-09  -6.6657786920399939e-07  7.3597284962843305e-11  1.4747119831456531e-11  -5.6347977426824142e-03  6.7494422920347926e-19  2.9752891487783139e-12  -2.6152286994819080e-11  -6.6586497493874174e-10  2.2798216668062635e-14  7.2898415912071675e-13  3.1473912518528693e-18  -2.9056181364748761e-03  3.0380670235386746e-07  7.2698413244246871e-14  4.0907631168808676e-09  2.7858779856545554e-11  -1.4347845039852819e-16  9.9549086355462127e-10  7.5891803556782326e-13  -3.9147842782051702e-07  2.0426166057376874e-15  8.2054514300144358e-17  -7.4514375525960151e-14  4.8821592265165543e-12  -5.2265106422726086e-19  5.3197933049262460e-13  -2.2625471231814939e-16  -3.1529476624907647e-10  4.5773092488000258e-11  -2.1711331271893240e-08  8.2551905529863634e-16  -1.6693380966438183e-10  2.4376362689211366e-11  7.5669806587581832e-19  4.5084736316981525e-05  -7.7292402590718749e-16  4.0773145543200795e-12  2.6535164167707090e-12  4.4277728394571170e-09  3.8835381302216507e-08  2.2416970450135837e-17  3.4554647670449558e-10  1.1828542738851548e-04  -1.6663581195600378e-14  2.8942834024973895e-11  7.3154403049524660e-13  -5.8096836489958127e-14  2.3646647765620276e-16  1.0441888944001524e-12  6.1857466750910170e-06  4.1161154734520755e-02  1.3960882992183386e-11  1.2036269572966909e-11  -2.1124092578319984e-20  1.1131688597945550e-10  -3.1150311776015817e-10  1.2379079610126930e-07  -1.8727233697977325e-15  -1.6140666643338074e-15  -7.9754729758747477e-17  -2.9955198623603994e-09  -7.7915466952259860e-19  -7.7416988254224284e-19  1.0490847549222386e-18  -8.2351243578110458e-17  -5.4407938664619829e-09  -5.6268041885201451e-08  -4.7880200997086374e-09  -3.9525603243369615e-16  -6.4955694178799318e-10  5.3959933792283644e-14  -3.5085304254514280e-10  -2.3704927688239321e-15  3.2359872379754925e-06  2.1127010167515258e-07  -3.0444862312161205e-10  4.0432675619442810e-12  -3.0677767988739146e-11  2.0121590121323200e-10  3.2405837714676506e-03  7.7866378625177058e-05  3.1105945544452101e-06  -3.0490821356332085e-09  -1.3076869217121618e-15  5.0447900313365004e-05  -2.4326359547884280e-17  -2.3456827371884235e-17  6.3687258665990895e-16  -1.5147312882434563e-16  5.2255030368338260e-16  1.1710455659938152e-14  1.8465454008653629e-20  5.4329012290178142e-08  1.5593748444519497e-16  -3.3390235918912558e-20  -9.7477977866941475e-18  -9.7515219174657737e-16  4.0590117481774538e-14  -5.5226803679745170e-11  -6.5498873582838281e-22  1.1406077358144265e-21  -4.5081799262913304e-16  -6.7699660162672723e-23  2.2559116722735094e-07  -7.9811262356976566e-08  7.8624953245356167e-07  -6.5749612265715942e-06  7.4034486938283322e-16  1.1359112732689687e-06  -1.1469051422285363e-19  6.3883147613718757e-09  -1.2666154316958499e-13  -1.7081571943977287e-12  -1.2363740609929761e-11  -2.3501871287600893e-12  -2.6564114525550753e-09  -5.8454525272510689e-20  2.8129881442711614e-20  -4.7276685624552933e-18  -3.4929728688298718e-18  -4.9379167691997501e-16  -3.8348412007036365e-14  -1.1086112731540492e-09  3.4137483503784147e-11  -2.8478875098551217e-17  -5.2670250977813306e-10  2.1346126029733962e-10  3.1890342960600843e-10  3.7732558663966686e-06  3.9825728438658889e-11  -1.8393031246165262e-17  -6.2154976280509122e-16  1.7561913642384669e-16  1.7274806295905526e-13  2.6006860180814798e-13  6.1085532585306618e-16  1.4886438659122904e-17  1.5641836864341522e-14  2.7251690807383073e-13  -1.0113403181535251e-14  -1.2968543689541050e-17  2.7867845008925717e-02  -1.0285400104204124e-04  -1.1700779097755547e-11  3.9976917000398639e-19  5.6446225451053359e-17  -6.2147283653705081e-16  1.1789426560442242e-16  1.1381230656294897e-20  -5.3071826795599966e-16  5.4050095109803644e-21  -3.3056973166984278e-04  -2.1050333131418663e-04  -3.2924014231294952e-16  -1.2161189526849003e-13  -1.0149776947261261e-12  -6.9403090010728251e-17  -5.1623518788737937e-18  5.0505903530846183e-13  8.6692716208134676e-09  4.6807973274237684e-09  1.8649495152676248e-06  1.6592950397502666e-11  -2.8229341278167298e-07  7.5972572602170740e-05  1.5634159605276446e-04  5.5369331169068024e-13  2.4500578225931304e-13  -3.3493122041848418e-14  1.7489557005052140e-14  6.7898030684311521e-16  -1.2230088816505385e-17  2.4647623871459651e-13  -1.1856264758450594e-17  -5.1723798675417324e-19  -1.5130026802843032e-14  3.2536890363104988e-16  -3.7236973525869719e-16  1.2526150897152287e-21  -2.4266159071893653e-19  3.5574742398683512e-13  -9.9617484963696361e-18  -8.1726971453840532e-12  3.5405896751836872e-14  -3.6488289280296419e-14  3.5892878166188555e-16  4.2954134739022798e-08  9.5060069929581033e-12  -4.1832962948683922e-11  -5.3779762542140827e-13  4.4160044230970218e-19  4.3994932727715632e-19  -5.5805800238817416e-18  1.1719456120675611e-20  -4.0221443250153141e-18  7.5537992045299846e-20  5.0923250122382267e-13  2.9239638249530643e-10  7.9957178845439541e-15  -1.7632414008669853e-14  -1.0025352773212587e-09  -5.4930184076965757e-09  4.8403775263317990e-12  1.0476773589294259e-11  3.6628074098037636e-10  -3.6901867174000016e-11  5.3626687046653488e-13  -1.2035050393562645e-15  -4.8213327437477150e-17  -3.5818473853734137e-15  -2.5438752606352111e-14  2.1586257680257353e-15  -7.7027788313799271e-17  8.7718291483149943e-05  -2.3052848629820149e-11  1.9074077027750958e-16  2.8790818663845995e-07  9.2383088324193454e-13  -1.7850239635321464e-12  6.2301219712315067e-14  2.6216110044958149e-10  -9.1523637493863793e-05  3.4617511450025182e-21  -1.8246519227976979e-21  -1.0975041460223595e-07  -1.9010392108228119e-20  -5.2580836364139267e-17  6.7764013383478052e-05  -2.2273466546593223e-03  1.0995955032378867e-05  -6.2562923283494046e-18  -1.1305620790694309e-15  5.0551654477550174e-03  -6.7933063937807291e-10  3.7472687271110419e-19  -2.3305844212034803e-05  -5.3127037953994046e-17  -2.6189661694703179e-21  3.5808189388066915e-13  3.6552109416961286e-19  -4.9543067036660173e-16  5.2180991798456040e-11  5.5708798183581862e-17  3.1425300564760442e-11  -1.3086403183769650e-16  3.0090892705387071e-05  -2.2775033986929930e-11  1.0418235281705246e-03  -7.5475314418606922e-10  2.8149294613753692e-17  2.9586207274873441e-05  2.6347560210510470e-14  2.3302488429079116e-12  1.2182654120013694e-17  1.0371991681934013e-12  -2.6296033534918531e-17  -7.3010172736119327e-19  -4.2674005144371469e-11  3.1732475472179564e-11  -1.1232263771954195e-17  -5.5643620444221117e-10  2.2253417011164210e-07  3.4138756895162809e-08  2.5878829806684193e-07  1.6020494057573560e-16  -9.5181600546247002e-15  -8.0133904789001678e-12  3.4205826970473734e-12  -1.7963729178851727e-06  -2.3702334651490368e-15  6.3988231204106719e-16  -2.3551222571789631e-16  -2.0396600384420641e-15  -4.4275698514586212e-14  -1.4460333039449080e-17  2.3629588342427055e-17  9.1038226844505285e-02  8.0453346220842371e-05  1.5496210350075671e-06  1.6169878844385937e-06  -6.2142128136190804e-08  1.1795479837664092e-06  2.6870272086813649e-07  5.8999205992739290e-11  2.5233872006973971e-12  1.3117212127557460e-06  -1.3975314512288304e-18  6.7721235879993809e-12  6.5816265918438936e-17  6.6138922707594045e-09  -1.5909234304374552e-11  -9.1593148633101814e-10  -5.9242283154389267e-08  -1.3010028841281199e-17  1.1348411547782660e-17  5.2269170795548503e-10  5.1462203462461256e-12  -2.1042532226563553e-13  -3.2442010181347343e-17  -9.7607534490679207e-16  5.7069661313871593e-09  -6.0585534251954588e-09  2.1193358440009122e-18  -7.2934303396168709e-18  -1.4362583341996064e-15  -1.1187791456811094e-11  4.6671873807695250e-11  -7.5952696447063733e-12  -1.1699364031613371e-11  3.0673014422562577e-09  -1.2783412284723913e-11  -1.5142475708675577e-07  -2.3821632107484208e-20  4.6725536068933109e-18  3.3898831091206966e-17  3.2755707726498203e-12  -1.2138946903083434e-14  -1.0722184744720112e-18  -1.7733179003728009e-20  -5.1125235941545555e-20  -1.5025521738978387e-19  3.6306254341203910e-11  -2.1880775642879597e-12  -2.4971503384242052e-13  -6.5099360463306578e-09  1.4650062863612769e-08  4.3478505084000991e-09  -4.3433418868301066e-16  1.4716172231074867e-09  5.7584825918623603e-14  9.4559432952170527e-08  6.3105382358229410e-19  -2.2834706083495869e-15  -2.3487567281117173e-16  8.7891153046555572e-14  3.5463432943862242e-15  1.2719931265757219e-13  1.1199012878002436e-12  -9.5890561469402015e-14  3.0075196915033659e-12  -3.2319550019575282e-13  -2.3134805937414924e-11  2.2157671632221040e-19  -5.8611902254213892e-23  2.2803966400647008e-16  6.5104243425627868e-16  3.3190629874097033e-19  -5.9682801151324894e-17  4.1776586512344341e-19  3.2686262830723633e-18  -3.2807102914294452e-17  1.1675122524694255e-16  -1.0179143302335575e-16  -5.7173546327659451e-17  -4.2105580470855854e-17  1.4360329842878128e-21  -1.5169173770569726e-17  8.2993310363560416e-21  -8.0600914789330075e-23  -3.4628140158852130e-18  -2.0066527390683320e-03  -1.4139147632702988e-08  -2.8834889352370282e-10  2.1120586419738231e-10  2.6294909724114167e-18  -8.6985475763919214e-18  -9.1549692817413109e-17  3.3587390008333212e-20  -2.9816663246522008e-07  2.6601262891221999e-12  -3.3241683135956028e-18  -8.9158270026683520e-08  5.0189446280694473e-19  -1.96963736