<?xml version="1.0"?>
<VTKFile type="UnstructuredGrid"  version="0.1"  >
<UnstructuredGrid>
<Piece  NumberOfPoints="3002" NumberOfCells="5870">
<Points>
<DataArray  type="Float64"  NumberOfComponents="3"  format="ascii">323455.6100285493 6048753.88242996 0  323455.6100285493 5954782.59950515 0  405920.1480513444 5954782.59950515 0  405920.1480513444 6048753.88242996 0  405920.1480513444 6001768.240967555 0  323455.6100285493 6001768.240967555 0  364687.8790399469 5954782.59950515 0  364687.8790399469 6048753.88242996 0  364687.8790399469 5996367.117560402 0  323455.6100285493 6025261.061698757 0  382226.6271443229 6022560.499995181 0  405920.1480513444 5978275.420236353 0  323455.6100285493 5978275.420236353 0  353897.8957397301 6022560.499995181 0  344071.7445342481 5954782.59950515 0  385304.0135456456 5954782.59950515 0  405920.1480513444 6025261.061698757 0  354379.8117870975 5975574.858532775 0  381582.8168806895 5978840.396198289 0  384950.2598624413 6001768.240967555 0  344643.0480768835 6003429.02033719 0  344071.7445342481 6048753.88242996 0  385304.0135456456 6048753.88242996 0  339717.0321562298 5986078.187627405 0  337515.036058786 5969821.016310448 0  368062.2614420265 6013076.224998265 0  368062.2614420265 6032044.774992097 0  393987.6142659165 5988729.699941677 0  405920.1480513444 6013514.651333156 0  392856.2821527076 6034589.119828064 0  393514.9611654527 5968369.338068204 0  339399.8087404341 6032061.482581838 0  323455.6100285493 6013514.651333156 0  374995.9462927963 5965504.865595459 0  354379.8117870975 6037976.901948514 0  338123.9088969378 6017031.529131207 0  367397.3120126425 5982072.559192053 0  351882.5752379905 5991998.990225234 0  376945.425450199 5991232.708824487 0  392265.0061656896 6013300.936254065 0  357029.7426706699 6006608.947964352 0  380093.6207558212 6036880.127749795 0  323455.6100285493 5966529.009870751 0  405920.1480513444 6037007.472064359 0  405920.1480513444 5966529.009870751 0  323455.6100285493 6037007.472064359 0  333763.6772813987 6048753.88242996 0  405920.1480513444 5990021.830601954 0  323455.6100285493 5990021.830601954 0  362879.3643765316 5966837.319094267 0  348367.6438548031 5965604.161682394 0  334493.1989038612 5996935.948935225 0  395068.5043068817 6023875.372615605 0  348216.0324377587 6013504.844950221 0  379305.9090074943 6011603.390019651 0  372523.5158233726 6003480.000732267 0  395435.2039568929 5999384.346358113 0  395612.080798495 5954782.59950515 0  333763.6772813987 5954782.59950515 0  395612.080798495 6048753.88242996 0  374995.9462927963 6048753.88242996 0  374995.9462927963 5954782.59950515 0  354379.8117870975 6048753.88242996 0  354379.8117870975 5954782.59950515 0  335074.5981535012 6007206.680367459 0  391925.2695590468 5978591.908877409 0  371969.1707190623 6022560.499995181 0  383872.162544519 5969415.106147043 0  358038.7139835292 5984533.09712744 0  369699.869182786 5973102.2359358 0  369841.9126663716 6041099.453006387 0  343176.7440329155 5994428.220622956 0  362933.5332293962 6024385.235173292 0  330640.1760208776 5984148.625419154 0  348684.7494355051 5983110.856817525 0  399094.9690929834 6007537.420809742 0  345447.6324516311 5974162.84917082 0  332859.7749513451 6039150.972778062 0  344517.044630671 6024057.945416138 0  332973.1214415312 6025037.914505113 0  341428.0126373461 6040493.820728126 0  385874.264691618 5992757.40885039 0  350337.3662538711 6030387.535304286 0  359887.2373602368 6016186.250094838 0  377097.8989316926 6029115.217702097 0  338917.7109078235 5961484.016839475 0  329495.5261590715 5972402.215053552 0  336644.7280634616 5978216.610794215 0  330688.6715098422 5962480.256438018 0  359899.8039476132 6031963.415584587 0  399746.255941904 6030426.523907755 0  385511.6875144855 6030368.508996127 0  387377.735783329 6040763.821024337 0  398832.192399829 5974431.100387635 0  387992.9498994246 5962432.032572681 0  405920.1480513444 5984148.625419153 0  364925.7641745284 6005782.953640081 0  361769.877068089 6041226.651684469 0  398452.9199001931 6040850.732439541 0  398946.6205243983 5962252.502309519 0  362305.5577564609 5975984.89789681 0  356822.8065216601 5998470.186307689 0  386900.7115926162 5984820.732438302 0  329528.0119279922 6032067.230024892 0  331139.6939744562 6013813.572928222 0  398457.5876798834 5982541.698799337 0  405920.1480513444 6019387.856515957 0  398685.5166750694 6017257.578706384 0  348587.9424884976 6042755.309150081 0  369841.9126663716 5960143.732550304 0  380149.979919221 5960143.732550304 0  359533.8454135222 5960172.384722514 0  377147.8814772839 5972649.581024994 0  341756.3455763521 6010124.092444684 0  355615.8176864882 5966311.193813809 0  369144.4338274571 5989807.770003954 0  375185.9047422862 5983510.422041401 0  323455.6100285493 6007641.446150355 0  391856.7960121195 6005888.565703365 0  371978.0245217044 5996361.134308098 0  405920.1480513444 5995895.035784755 0  378877.1880032702 5998073.745937059 0  359056.6617417652 5991643.489540118 0  399278.8743430426 5993436.466134224 0  386116.8775939071 6009922.097099247 0  323455.6100285493 6019387.856515957 0  388994.7833819839 6019826.789191471 0  348897.6207366391 5998116.079250046 0  345456.3301153719 6035064.814295612 0  323455.6100285493 6042880.677247159 0  334124.3013408988 5990072.953472659 0  377097.8989316926 6018059.782440464 0  323455.6100285493 5995895.035784755 0  342871.8474798963 5980154.238874755 0  373596.9793292385 6035659.183886081 0  380149.979919221 6048753.88242996 0  376327.9292813152 6042294.581731233 0  329163.3548105369 6004704.843558955 0  350303.9432136903 6007093.032074522 0  383982.6552804571 6015912.664375832 0  345515.490569988 5988567.439252969 0  379019.812877927 6004678.052169549 0  365541.9137639466 6018750.691894444 0  349225.7781606728 5954782.59950515 0  352493.3399767278 5960815.406895458 0  363683.8130458911 5986976.225872464 0  386666.791301207 5975084.583584332 0  368937.6553346639 5966171.092344863 0  400003.9882214358 5968352.273777306 0  328776.0063842635 5992958.433193355 0  339958.4428758043 5999572.344589042 0  354577.7732363954 6012555.454074449 0  328609.6436549741 6048753.88242996 0  382053.0280278458 5988228.496807038 0  330708.6817934912 5978212.973348036 0  372084.7734679543 5978495.086505585 0  358568.2738174705 5971419.415228934 0  328931.2672829705 5998832.905089681 0  323455.6100285493 6031134.266881558 0  405920.1480513444 5972402.215053552 0  405920.1480513444 6031134.266881558 0  323455.6100285493 5972402.215053552 0  405920.1480513444 5960655.804687951 0  323455.6100285493 5960655.804687951 0  405920.1480513444 6007641.446150355 0  323455.6100285493 5984148.625419153 0  405920.1480513444 6042880.677247159 0  346648.7613474604 5960023.05127712 0  342415.3891593561 5966358.988213831 0  350507.6510228226 5971111.740321856 0  391773.9667214506 5994456.117700323 0  338875.8905424621 6026088.827345025 0  361429.1735454847 6010511.262533597 0  389395.7028803263 6025805.543023561 0  392895.6464692951 6043315.288173481 0  332846.8296575367 6019296.633131165 0  373337.4404588729 6009693.515402478 0  336544.3064612215 6043648.151399015 0  348610.2411382072 6019567.839754772 0  381943.4597763228 6042183.394750732 0  355630.0631288611 6028071.82801846 0  363941.5238882306 6035967.852698964 0  328179.67203552 6022271.326978176 0  401066.2857736665 5998807.415073814 0  344387.1099621175 6029612.545574771 0  393435.2235156003 5960233.556458537 0  400735.9970493424 6022675.638064924 0  393708.5772019727 6029179.837160029 0  400609.0696943338 5987857.851798974 0  361753.6614662939 6001152.171757337 0  400766.1144249197 6048753.88242996 0  353363.0524357285 6002630.165620538 0  343248.328463803 6018790.640008039 0  356419.8105951758 6043365.392189237 0  390234.385899412 6000759.497967276 0  368336.1168551637 6000220.532318851 0  328609.6436549741 5954782.59950515 0  387520.8298169724 6035372.992507171 0  400588.0280660195 6035823.299583429 0  329021.6598427091 6043194.252697862 0  393371.710206733 5983576.325812268 0  393638.9721728675 5973623.513063556 0  371727.9212466564 6017113.044457142 0  364687.2762977295 5959941.212693035 0  374995.9462927962 5960346.83186599 0  369841.9126663716 5954782.59950515 0  400766.1144249197 5954782.59950515 0  338917.7109078234 5954782.59950515 0  369841.9126663716 6048753.88242996 0  359533.8454135222 5954782.59950515 0  390458.0471720704 6048753.88242996 0  338917.7109078234 6048753.88242996 0  390458.0471720704 5954782.59950515 0  359533.8454135222 6048753.88242996 0  380149.979919221 5954782.59950515 0  349225.7781606728 6048753.88242996 0  339867.4956514095 6005339.817053361 0  333737.9460226952 6002130.523287664 0  336955.8140048417 6012008.440073739 0  377097.8989316926 6023232.32559834 0  371748.9790486701 6028016.629988787 0  338146.5171983215 5993298.164761053 0  355016.8390227688 6017610.913088997 0  393953.1528190996 6018968.416019509 0  335185.8133477239 5965142.63403323 0  328616.6041642396 5967263.80307608 0  380314.9487662361 5965460.362415641 0  354622.8993466098 6032976.142863722 0  328521.4725131759 6027215.026914048 0  334465.0783479523 6034070.534389696 0  328123.6212682287 6009699.206425843 0  381889.5169855529 5973936.741901617 0  359122.3484437474 6036790.002992895 0  386341.6533148278 5979963.279841923 0  400798.2159679119 6012477.871311778 0  388538.3765260249 5967461.292146791 0  340833.8784183678 5975728.708105717 0  355307.6239213505 5988552.151815021 0  362181.4274823388 5981261.937800813 0  353784.0322742948 5981044.538811012 0  358045.1698423899 5978741.391518688 0  328423.7350325213 6036912.015930048 0  366897.6876966125 6027277.723668203 0  347355.1745641421 5978532.307510624 0  376820.5060332146 5979033.270735624 0  349378.1778589479 6024378.632814493 0  327189.2282939323 6016451.253924556 0  338433.8773236172 6036753.902881841 0  350141.9760340559 5987605.90026687 0  363794.7083927878 5991713.491814731 0  350325.1285660182 6035273.515460094 0  382355.9358007369 5983507.499638396 0  327107.0747437811 59811
[...]
<PointData  Scalars="f_58-1"> 
<DataArray  type="Float64"  Name="f_58-1"  format="ascii">3.0079287500705573e-23  6.6306061479509066e-22  -1.0328765512551776e-17  -1.7331362541517190e-20  5.0090923827457600e-10  -8.3630499201783203e-17  -4.5833251427131482e-16  5.1813002170196773e-17  -5.3958866307010390e-03  -2.3657337758691362e-18  2.8955267664184292e-09  5.7404516942743802e-12  1.0997859515603420e-18  1.6582330108842369e-08  -7.6393314074388039e-19  -4.4759873290575819e-15  3.1419367161047911e-14  7.0599391372689053e-11  -8.6826347824507033e-07  3.3582645379849883e-03  1.2155467377259279e-07  6.4145625603687189e-18  1.5524690793372409e-18  1.2516304070658828e-11  1.2743162622065628e-16  2.5684882746584211e-04  3.3593421282740392e-10  1.7462088704806758e-06  2.3706836851655302e-12  -3.8427625642286586e-15  -1.5422372369074127e-11  3.2367678236523835e-16  -1.1178555083616249e-17  -3.9980120243273974e-12  2.2006946384187624e-12  -2.0617779328542898e-13  3.2697323144958081e-06  -4.2914232515306249e-08  3.1670713611561783e+00  -1.6283838976438187e-09  -5.1252461044408092e-05  2.4577897178671146e-12  -1.0819317017415269e-20  -6.1236147331474293e-18  2.0789868645552767e-13  -2.9651304930180725e-19  7.0878478711173652e-21  1.6233010248077866e-10  1.1537945805133744e-16  4.0071099087330852e-11  2.7697156187266404e-16  1.3146914795129954e-13  2.4653474009686890e-12  2.1263198193261142e-08  4.9436143539844722e-07  1.5123293588308407e-02  1.0516867688990337e-06  3.6835310983719241e-17  -4.1521949963553004e-20  1.9995044442216181e-20  -6.1236497966564852e-18  3.2492528105854051e-18  -1.3243270960440118e-17  -1.3387920318246355e-16  1.9460463191365423e-11  -8.1679100821644625e-09  3.8803726822475502e-07  2.9002627710925536e-09  1.1206296260184312e-07  -9.9743914384365407e-10  3.7831984608505065e-13  -2.0498850478919821e-10  7.7521086633626097e-08  -3.2759212727035759e-16  6.0849153351453742e-10  -5.1040853176771719e-10  1.0976403953484686e-12  1.8375839441400472e-19  1.0904755649574073e-11  8.0449244488981842e-14  2.8895499869629459e-17  2.2178906404443834e-03  8.6605702888318720e-11  -8.9454608738052751e-07  2.8727515260433568e-10  1.6893492470945051e-18  -1.3882567035973413e-17  8.0004770976311118e-14  1.2800464903578967e-19  1.3786893998190425e-10  3.2687210864794081e-16  2.4582275118187642e-11  -1.0664241174970609e-18  7.9886226609465539e-12  1.5174984040437886e-12  -4.1808561965993331e-11  8.4614869393445857e-01  3.5859850687359336e-13  -1.2283462300876749e-17  1.1286934837841167e-14  1.7914647498715247e-08  -6.4564687605834074e-05  9.0908208469931155e-06  1.5113531771638997e-17  -1.8228633078201316e-15  5.8764620835148306e-09  5.8080832306268047e-13  -1.8495473087538864e-12  8.3217943555439571e-16  4.3482315434295748e-13  8.2541982246571755e-13  -4.1694758524002261e-15  -3.2857482798202817e-09  6.5238302008406480e-10  1.4387156063220148e-12  4.4506180354186046e-03  3.0836154100441981e-04  5.4022446456233141e-16  6.4935636462546795e-07  8.6456965942968900e+00  -4.3328599886086528e-12  1.8652661176469063e+00  2.2955673206938423e-04  3.8622426528714124e-09  2.6816661284537933e-06  2.9340222078170843e-18  2.4530688856349308e-10  1.4327192233177147e-06  6.5975656675948265e-14  -5.4689080133770951e-21  2.5068292293202384e-12  8.9194144174423212e-07  1.0338175910611212e-16  3.6984241846105406e-13  4.2813696997554278e-12  -1.3897672178268517e-17  3.0631518343283062e-14  9.2249051287236668e-15  -2.3628767255693282e-07  5.9352186042770354e-08  1.6464175851388521e-09  3.9289908483687566e-03  4.3922508075482262e-06  7.9240261793500105e-18  4.9088995568183228e-16  1.2447490700362627e-04  -2.3097693862753274e-08  -2.1242514338613561e-12  3.8654544671321728e-13  -6.1891278805655214e-16  6.4131940584738581e-09  4.4488192925696252e-06  6.2435225262064993e-22  -3.6185887402756371e-03  1.2281702305640533e-16  2.2404125603828449e-06  -1.2621298146887588e-11  1.7379840445849907e-13  1.6947660163459222e-18  2.9200572804240386e-12  -2.6777317891039586e-16  7.3020215491675981e-19  -5.4112951309199689e-17  3.2885865021814311e-21  4.2454435515506571e-11  3.6291321444860171e-17  -1.9319087797018590e-19  5.2698964087264823e-18  2.4878664772351226e-16  1.3155782657996173e-12  9.0357730864332829e-05  1.5383426165010426e-13  9.3922159306969132e-05  5.3480752996581580e-12  -8.1325689977262524e-18  3.5821387803082140e-16  3.0120734933865691e-03  -1.5268447837920865e-19  3.7638347810129286e-09  2.0927286711135969e-16  1.1993211166791552e-09  2.2025295022802122e-12  -6.3744075892234971e-17  5.8632738056695858e-09  1.3619937480553994e-12  1.1683909278874385e-13  7.8164958703541992e-13  2.6001477710284791e-13  1.2374772732258519e-08  2.9358597072710747e-02  -5.0908398725619105e-20  1.1666302791557025e-04  -2.2567786388362229e-11  -1.6528223605303720e-16  3.2836780661587913e-05  8.8220460514337660e+00  5.4298275840377001e-21  1.5898252238155663e-13  -2.3970586609831038e-17  5.6623617496023678e-22  1.8661546263423499e-07  1.5040862282981529e-09  1.1481061125338846e-05  3.5430882263026136e-14  -3.2793503779238217e-15  3.2242601165545446e-17  -4.0950809656230232e-17  -2.3166732171587996e-19  -7.4900711701326579e-17  -2.4959563203758852e-16  1.1928577302990080e-18  -6.2128288505264080e-21  -2.1426028541086945e-15  2.4265893158656107e-17  5.7131625572794405e-16  3.2108306692006003e-17  4.1395263281347326e-09  1.8702759343222866e-11  2.5462050763232969e-11  3.4802744907003060e-08  3.2882364008281561e-10  1.3601820093349021e-10  3.4372972703034478e-07  4.8550554804075834e-10  8.9592034803203254e-18  1.3249373797574476e-18  5.2837658574309018e-11  6.7021697391796936e-11  1.7788343880409130e-16  -6.4208396258694509e-18  7.0843597178878016e-14  4.6932730150609129e-09  5.9723038640803315e-12  4.7906688121564826e-07  2.7526592981327756e-10  -1.7460495891822647e-11  2.2917812897056915e-15  9.9097334152206165e-07  3.0603811848773652e-10  2.3512919114363814e-09  -4.5904904219307350e-10  3.3924271374350350e-19  1.2339325486078962e-08  3.8776611099453517e-11  8.5490729954189406e-07  5.9681680564218079e-10  1.1322186308024516e-16  -9.1920079046814373e-19  1.2016400258096281e-08  5.0971129798523017e-04  5.9644748611200041e-14  -9.5750495107699559e-05  -2.3410917712449137e-17  7.1457504679090954e-13  -6.7754268695628962e-16  2.3910508929754412e-01  -7.9778209588174234e-11  4.5392769838705932e-10  4.5456843666091907e-08  -5.5695500948739906e-16  1.1247253507308136e-15  1.2018061358607943e-11  3.0789239766789185e-17  3.6073030708680702e-16  -3.5555454005405799e-09  6.7139680018529058e-05  7.4180730985093598e-18  9.1250167840896124e-03  1.9426936549218642e-12  1.9224072897509475e-07  -3.1213266395707277e-06  2.4798236618686023e+00  7.9928790756079575e-08  1.0616601296247429e-13  -4.6798679435043248e-09  -5.4865613906279818e-10  6.1284809953827049e-09  6.1321136115131346e-09  1.5346462762617185e-05  9.8400604715146524e-11  -1.6846444769288964e-10  1.8070330213014199e-10  4.3207575525752594e-06  1.8590785127812984e-06  4.9668264153075595e-04  -7.0596874474884519e-17  1.5116992394585848e-08  4.0032446911222182e-18  7.1862585448644399e-14  9.6946428699792526e-08  4.8343852227109958e-12  -8.1065118403050389e-10  5.8098973826101316e-18  4.6883031259332895e-10  5.6263868164466180e-11  7.9896603297483354e-03  3.2029662366291992e-13  -1.3524338501214340e-19  -1.3015194836523716e-18  9.3104950219660465e-05  3.1513483036485221e-14  8.5354528222346631e-13  1.5646023917941695e-17  3.6202227636128949e-10  -5.8264228905831087e-19  -2.1117116981280577e-18  1.3994863315290194e-19  1.3284086163133266e+00  -6.5241058239581048e-16  8.0030306849351533e-03  4.5047492159106727e-16  6.0278209494174143e-20  2.9536135693815469e-15  -7.5138411514533337e-14  1.9082647850258108e-11  -9.5149997651509267e-15  1.8724694845127612e-08  -3.4192658824954119e-13  2.3016337594386503e-14  -1.4159570420631742e-15  1.4100386352502401e-11  -1.0224952100435647e-06  -6.4001719159685849e-05  9.5102346881965492e-04  1.2129337140719205e-16  8.9287238787531095e-10  2.0601924424713508e-13  5.0499939478512259e-21  -5.8889106162769205e-19  -7.4382399596274736e-13  5.1230067888086419e-11  2.1380071594831860e-11  1.1089778129836353e-13  -8.1982685495621870e-15  3.0590280308076739e-14  3.5276148791565704e-16  5.2852196529829407e-02  -1.8824689624238187e-10  -4.3327258595936462e-14  9.6821170445604974e-08  -9.0473774220781980e-04  -4.3039280251531845e-03  4.6828195728525254e-03  -1.2839899411398261e-02  2.5223277003665018e-16  2.5768170840510500e-08  2.6890657755314032e-10  4.2309768162430512e-12  1.9837813383555309e-10  -3.9944001348428187e-11  -1.5774422805170812e-22  5.5435273804298139e-20  -6.8403424820203162e-08  5.1303457436912625e-13  -8.2945169457201135e-15  -2.3227911097833918e-06  -8.3214474746729982e-15  4.4623494507679957e-08  -1.2916631646583043e-16  2.1947657738685465e-08  8.5456253700720287e-09  -3.4533344351022330e-18  8.4650604835255611e-19  1.0075552936739779e-02  9.3365620136173981e-07  6.4807943701277767e-13  1.7437204860720600e-11  3.7530820206138735e-12  -1.7722307652655609e-20  2.8096068313464696e-17  -1.0035803565675249e-16  -2.6907175933691650e-03  -2.7280204162326385e-10  -1.8337595285460490e-15  -1.3047359155719651e-15  1.0292883522602464e-12  1.6190504496824423e-12  -2.4190322033062044e-16  6.6512686756166939e-16  1.3067022316780326e-06  2.3002755621327884e-06  1.4237568969731303e-11  -2.8821786882630582e-17  2.2531696152226843e-12  4.5544603413352808e-10  -5.5754819789253481e-17  -8.4257887811260409e-13  2.8805827292149850e-04  8.0357083225598685e-11  4.4046539110733316e-11  1.5079342628389361e-14  3.7720829191731128e-16  -2.0520685526045354e-19  7.6644959641469287e-14  -3.6603960391816043e-05  3.1629912817966637e-10  1.4369509577540347e-12  1.7942006191443869e-09  7.7433564591277872e-12  1.3687045478669195e-11  9.6054730424405955e-12  1.9234713185324487e-09  -1.5226721340529191e-16  2.2642108054018866e-12  9.4773839442006469e-07  -3.5764113173319527e-09  3.3257584230170032e-08  -3.7565306363134060e-08  5.4665737867220921e-06  2.4650762869470566e-08  3.4490962490581979e-09  5.1742686629055208e-13  4.0286734567762755e-13  1.0651182898844569e-04  1.4405759197322759e-18  2.7148977372333109e-05  1.2305185602919918e+01  1.1456423072709674e-18  5.5649882355520239e-14  8.2458098041048736e-07  -1.2110883867056127e-11  6.3838131316153881e-05  3.6903960078686639e-13  -2.2695388769911588e-17  4.5071364257072862e-17  8.6570714725128654e-17  7.0284284739007204e-17  -1.1777066778614097e-09  4.6714492712758778e-08  1.4167708164638031e-12  -4.0004553972997120e-12  -7.4134401164988792e-17  6.3852966246236705e-06  6.8090708385337625e-07  1.6920290173818158e-05  -3.3612493012447251e-11  -2.0777743042826075e-14  1.8707328760810710e-10  3.9988445499684139e-06  8.4456151047283736e-07  5.0969057503251658e-05  6.5099574930609429e-09  3.1206148950429995e-10  5.7307545630567436e+00  8.2921209924840703e-19  1.4639543902981566e-10  9.8863403227205575e-10  -2.9840003320187149e-09  1.5872122578148982e-13  1.8858994151674543e-12  5.0259062307767550e-17  5.1667385769271457e+00  2.6776781369406056e-06  2.0296752617155945e-13  5.8561807377846909e-07  1.2689250134648425e-10  6.3892606585865964e-16  2.2726186998088278e-09  2.1241749265721943e-12  7.0507110447167750e-05  -1.1332927922638212e-15  3.8345202157842164e-14  4.1359997385769774e-12  1.2235549989154426e-10  -1.0842044477755774e-18  -1.4085589337515378e-12  -5.0125917603253800e-16  2.6066169059964249e-08  4.0237842963421463e-10  1.4647265190359427e-06  2.6865906542568870e-14  2.1386697244922529e-08  5.0350300204899286e-10  -1.4372143757463273e-19  4.8693623943479976e+00  5.7402900251620879e-16  1.0209167237079415e-10  -4.2206345882555675e-12  7.7490594984954209e-08  3.1238768303600014e-07  6.2885016077467511e-17  -4.4352783298639226e-10  2.2167645605639059e-02  9.2493080605095647e-13  2.7366094269629329e-10  3.0481530931944418e-13  7.2262094906271980e-13  -1.2282391259901878e-16  4.6496659569088282e-12  1.4723352444425731e-04  8.6748456907393283e+00  1.6626256079584058e-10  8.3612958698182999e-12  1.8512232948033264e-20  -2.5585759864201588e-10  -8.9576704295939492e-10  1.8273698553877904e-06  -4.7224857111428002e-16  1.4996837459876515e-14  -3.4400831197618803e-16  9.5508615417704846e-09  7.5547484599290528e-18  1.8678027417129336e-17  -5.8726339644790930e-19  -8.5601951652430248e-17  1.1379532584671065e-07  -3.9358390970045247e-07  4.7592701425579132e-07  2.2926443201758862e-16  2.5549982257947982e-07  5.7065101360798579e-13  8.7742175328941874e-10  1.0325033687208264e-13  1.3568479153616654e-04  2.9033090169787308e-06  -1.9382438492835362e-10  -1.1233101197338163e-11  1.2516391391331593e-09  5.7583011546790874e-10  4.0448188194506240e-02  7.9214917465575772e-03  -2.4448965037272147e-05  -8.0571345073548752e-09  2.4040737366537824e-14  1.5695424581815042e-03  -2.3089878981312013e-17  -3.1022031882675895e-17  3.0064413969153609e-16  -6.3345064884371638e-17  9.3414689771167936e-16  9.2655784873485342e-14  -2.9069674305419400e-20  5.5340349447574774e-07  -1.2562432090711721e-16  -1.2792727909995422e-18  3.5401252162001651e-17  -4.1954873900495085e-15  3.1299277542823293e-13  -1.7304799631915649e-10  -2.2846346492617484e-21  -2.0582173106440371e-21  8.6039645662577908e-15  1.5850453906973126e-23  7.4628279447025491e-06  2.0289422720421799e-06  8.1594441461574238e-05  -6.4742804272366138e-05  7.1300667934433948e-14  5.9009331901102485e-05  2.9796203324387687e-19  7.7940378440044670e-08  -3.7853373235637103e-14  -5.0447226664962187e-14  5.3978472674326187e-10  8.5054818403034715e-11  4.3694079197731165e-07  1.0564502970177566e-19  -2.2309316342786142e-19  1.9390146032498615e-17  3.9325659006952239e-18  -7.8399751223436802e-16  1.3813699361893864e-14  4.2395228987060525e-09  -5.7020947414352836e-11  2.5712481566453545e-17  -2.7005359104639586e-09  3.2905827102814986e-09  5.6707676461653531e-09  1.7017210661999423e-04  -7.5266556160983621e-11  -1.8333940902041121e-16  1.4358629448947237e-14  2.7281089455875911e-16  -1.3717543471256920e-13  -3.6530374776851916e-13  -3.7348956913715347e-16  -2.9694895141811505e-17  -3.0870641430007336e-15  7.4150116415080859e-12  2.8445334437746559e-13  1.7766594053357847e-16  8.5453703804586958e+00  7.8143296720150045e-03  -5.0357622394225393e-10  -1.0849656631724429e-18  1.3867508524702315e-16  -1.6803719274070664e-15  -4.7250964780017185e-16  -4.6766203404365170e-20  6.3026383733804815e-16  1.3998670326039973e-20  -4.9717754069026213e-03  -5.2548475566266710e-03  -3.0115285338821065e-14  1.1300940546315997e-12  -2.0648918407942576e-12  3.9642381878422890e-17  3.4374491681323416e-18  7.2200959881103353e-12  1.5920807447274848e-06  8.6639960516978182e-08  8.6180372327011932e-05  2.2865186260607266e-10  8.5511333096072326e-06  2.4792653515342909e-03  -6.4073333918825467e-03  7.8273564552482375e-12  1.7740033341342098e-12  7.4877553752022020e-13  8.3628318082402914e-14  -5.9657928420018927e-16  1.3040572844907568e-17  2.1473902461853984e-12  2.5919117371596620e-17  1.5615805786890780e-18  4.1820860606741084e-12  8.9904667979798405e-16  2.2653878432943998e-16  7.3787710341934572e-21  6.6110437970625939e-19  5.4712737413868272e-11  -1.1824016828059303e-17  1.9812544660552760e-10  -4.4747632029288192e-15  2.6603639335114636e-12  5.4266407124605586e-14  1.1983625762070329e-06  1.6740898775494326e-11  -9.0532261938647727e-11  3.6193634019558334e-11  1.5659776376402843e-18  1.1667877423856476e-18  -2.8890085868690188e-18  -3.9767555951884379e-20  -3.2736521003505332e-18  7.7305296134236997e-20  3.7355674512102681e-11  1.7099942417598258e-11  1.2331995414865968e-13  -7.1963845638756249e-14  -2.2312270252658263e-09  -6.3456555931050447e-08  -1.6514724790640665e-11  -2.5823447727223539e-11  -1.3091048469588656e-09  -9.6270252666804636e-11  1.9087442157015688e-11  9.4892420572764041e-14  -4.8691629434804560e-17  4.5566643202650712e-14  1.9081363171230000e-12  -6.8440703899466122e-15  6.0485366786885596e-16  2.9968827559571499e-03  1.4834715263648047e-09  -2.4705147344374400e-16  -1.8387685761713080e-06  -3.3600400150304548e-12  1.2512894739120900e-10  -1.4351382812424206e-13  -3.2924796902492278e-10  2.8011636055434261e-02  -1.1819381352196374e-21  -1.0212219107658820e-21  4.1445537515999481e-06  1.1844474242769954e-19  -2.4168895766891176e-16  3.2388152371141707e-03  7.2913515114259397e-01  -4.6310998953341120e-03  -1.0176654070709359e-17  4.6981825334019344e-14  3.8383930361529472e-01  2.1744203837935338e-08  1.2582325650962244e-17  -2.7443091863696176e-02  7.5681866594669508e-18  5.2592542001695991e-21  2.5276485252526617e-12  -3.1549471415182428e-20  -1.6460006849934463e-15  -2.1478466529594928e-10  1.2269234415627892e-16  -7.3442003396882295e-12  -2.0809183336954573e-16  5.8242412415893301e-03  -5.5717796855636159e-11  7.3814607182849862e-04  4.3050637625833608e-08  9.7774960225158675e-16  1.5200351948055802e-03  3.8001779662220101e-14  5.4204597059046090e-10  1.8879403934443775e-17  2.5940764861046367e-11  1.4058729454751903e-16  -5.0791219647078132e-18  1.5667288262989578e-09  -1.2784113044472744e-10  5.9643083918108224e-17  4.4340424454063693e-08  -6.1418206661258232e-07  -6.4655537394681018e-08  4.9380783138583406e-05  -1.6238930163905372e-15  8.4326072463573175e-13  7.3883567292421587e-10  -1.0246410231247803e-12  -9.3436586319651960e-05  -4.6565418655865388e-15  1.2805872467657976e-15  6.1865456285904577e-16  1.2607279946225103e-13  1.0197728728689396e-12  6.8494407687410740e-16  -1.8590079887905572e-16  9.6628382813503659e+00  8.2806389286060374e-03  9.0197053503504867e-05  1.4624876466525139e-04  -8.0284067936966988e-07  1.2066337942372141e-05  -7.5466657463245328e-07  -1.4595142151790948e-10  2.3058862966064168e-11  4.5726927419801223e-05  5.3515638200687053e-18  3.9597624373041676e-10  -1.2651384662696828e-15  1.4006796707297524e-07  1.2248234961196683e-08  -9.5864661423328773e-09  4.7091957785972576e-06  -4.9319218088770588e-17  -5.0065456383672470e-18  -3.2431463476767826e-09  3.5253336881647025e-11  -4.8865563709749844e-13  -8.8279688859234885e-17  1.6471203918495061e-16  2.5309651828291524e-08  1.6718991936923593e-07  4.4980364242374432e-17  -7.2957437488227501e-18  1.6093839889631165e-15  1.1360057959564870e-09  -1.6607826614294699e-11  8.1819827708787748e-10  -2.5039232469844903e-11  4.5496075919513962e-09  2.6109102632547789e-11  -2.6436590584701606e-06  -1.8915881062690730e-20  -7.1082859766886580e-18  -6.6122761446204953e-17  -1.6095555492153343e-11  3.4616386949785647e-13  -1.5003200701532364e-17  -3.3332755376812485e-19  -1.2213285896379068e-19  1.1390680477119140e-18  1.9086682177314048e-09  9.4935102587754587e-12  1.6044652554941832e-11  4.0787363432758572e-07  -1.4567394030070666e-08  2.6401779649298555e-08  -1.0726319980221102e-15  -1.4653841592531041e-08  -1.4189280249675394e-13  1.7443955430142969e-06  -2.4580593881820541e-17  1.0254126799177263e-13  3.7646024459811190e-15  3.4494830790436546e-13  5.3527995391361211e-14  4.5912800454405736e-13  6.4499979169441161e-12  2.5402409260930381e-11  1.7056647418025976e-13  2.3508912219332426e-11  3.4966377353700978e-12  -3.1770361389770279e-19  -1.3199041454356689e-22  3.6838047922876479e-17  -2.4248765396415715e-15  8.4250429713900563e-20  -1.3596114817394050e-16  -1.7075797526563650e-18  -3.9170203008749116e-17  4.9609188687445312e-16  8.0014181554855039e-16  -4.5530877754845379e-17  -4.3749631908748714e-18  -1.0017739724725584e-17  -2.0903888693075853e-21  -7.3427636121030251e-17  -7.8177449297539575e-20  2.1964204305100519e-20  1.4596354632921311e-17  1.9035187377380305e+00  3.9155997598276977e-07  6.9121749667849524e-08  3.3027068538569938e-09  3.1630863532452069e-18  -1.5630072417453801e-16  9.2911552599500467e-16  -1.3301519665973256e-21  -8.4010224617883386e-07  2.9111267540944443e-12  -5.3444300569191081e-17  -5.3705317374295659e-06  -8.9380334464892729e-19  1.6510127579007779e-08  5.9510159319432645e-14  9.5812087345928117e-07  6.5404820312065887e-17  -8.1692990152517055e-05  -5.70524