<?xml version="1.0"?>
<VTKFile type="UnstructuredGrid"  version="0.1"  >
<UnstructuredGrid>
<Piece  NumberOfPoints="3002" NumberOfCells="5870">
<Points>
<DataArray  type="Float64"  NumberOfComponents="3"  format="ascii">323455.6100285493 6048753.88242996 0  323455.6100285493 5954782.59950515 0  405920.1480513444 5954782.59950515 0  405920.1480513444 6048753.88242996 0  405920.1480513444 6001768.240967555 0  323455.6100285493 6001768.240967555 0  364687.8790399469 5954782.59950515 0  364687.8790399469 6048753.88242996 0  364687.8790399469 5996367.117560402 0  323455.6100285493 6025261.061698757 0  382226.6271443229 6022560.499995181 0  405920.1480513444 5978275.420236353 0  323455.6100285493 5978275.420236353 0  353897.8957397301 6022560.499995181 0  344071.7445342481 5954782.59950515 0  385304.0135456456 5954782.59950515 0  405920.1480513444 6025261.061698757 0  354379.8117870975 5975574.858532775 0  381582.8168806895 5978840.396198289 0  384950.2598624413 6001768.240967555 0  344643.0480768835 6003429.02033719 0  344071.7445342481 6048753.88242996 0  385304.0135456456 6048753.88242996 0  339717.0321562298 5986078.187627405 0  337515.036058786 5969821.016310448 0  368062.2614420265 6013076.224998265 0  368062.2614420265 6032044.774992097 0  393987.6142659165 5988729.699941677 0  405920.1480513444 6013514.651333156 0  392856.2821527076 6034589.119828064 0  393514.9611654527 5968369.338068204 0  339399.8087404341 6032061.482581838 0  323455.6100285493 6013514.651333156 0  374995.9462927963 5965504.865595459 0  354379.8117870975 6037976.901948514 0  338123.9088969378 6017031.529131207 0  367397.3120126425 5982072.559192053 0  351882.5752379905 5991998.990225234 0  376945.425450199 5991232.708824487 0  392265.0061656896 6013300.936254065 0  357029.7426706699 6006608.947964352 0  380093.6207558212 6036880.127749795 0  323455.6100285493 5966529.009870751 0  405920.1480513444 6037007.472064359 0  405920.1480513444 5966529.009870751 0  323455.6100285493 6037007.472064359 0  333763.6772813987 6048753.88242996 0  405920.1480513444 5990021.830601954 0  323455.6100285493 5990021.830601954 0  362879.3643765316 5966837.319094267 0  348367.6438548031 5965604.161682394 0  334493.1989038612 5996935.948935225 0  395068.5043068817 6023875.372615605 0  348216.0324377587 6013504.844950221 0  379305.9090074943 6011603.390019651 0  372523.5158233726 6003480.000732267 0  395435.2039568929 5999384.346358113 0  395612.080798495 5954782.59950515 0  333763.6772813987 5954782.59950515 0  395612.080798495 6048753.88242996 0  374995.9462927963 6048753.88242996 0  374995.9462927963 5954782.59950515 0  354379.8117870975 6048753.88242996 0  354379.8117870975 5954782.59950515 0  335074.5981535012 6007206.680367459 0  391925.2695590468 5978591.908877409 0  371969.1707190623 6022560.499995181 0  383872.162544519 5969415.106147043 0  358038.7139835292 5984533.09712744 0  369699.869182786 5973102.2359358 0  369841.9126663716 6041099.453006387 0  343176.7440329155 5994428.220622956 0  362933.5332293962 6024385.235173292 0  330640.1760208776 5984148.625419154 0  348684.7494355051 5983110.856817525 0  399094.9690929834 6007537.420809742 0  345447.6324516311 5974162.84917082 0  332859.7749513451 6039150.972778062 0  344517.044630671 6024057.945416138 0  332973.1214415312 6025037.914505113 0  341428.0126373461 6040493.820728126 0  385874.264691618 5992757.40885039 0  350337.3662538711 6030387.535304286 0  359887.2373602368 6016186.250094838 0  377097.8989316926 6029115.217702097 0  338917.7109078235 5961484.016839475 0  329495.5261590715 5972402.215053552 0  336644.7280634616 5978216.610794215 0  330688.6715098422 5962480.256438018 0  359899.8039476132 6031963.415584587 0  399746.255941904 6030426.523907755 0  385511.6875144855 6030368.508996127 0  387377.735783329 6040763.821024337 0  398832.192399829 5974431.100387635 0  387992.9498994246 5962432.032572681 0  405920.1480513444 5984148.625419153 0  364925.7641745284 6005782.953640081 0  361769.877068089 6041226.651684469 0  398452.9199001931 6040850.732439541 0  398946.6205243983 5962252.502309519 0  362305.5577564609 5975984.89789681 0  356822.8065216601 5998470.186307689 0  386900.7115926162 5984820.732438302 0  329528.0119279922 6032067.230024892 0  331139.6939744562 6013813.572928222 0  398457.5876798834 5982541.698799337 0  405920.1480513444 6019387.856515957 0  398685.5166750694 6017257.578706384 0  348587.9424884976 6042755.309150081 0  369841.9126663716 5960143.732550304 0  380149.979919221 5960143.732550304 0  359533.8454135222 5960172.384722514 0  377147.8814772839 5972649.581024994 0  341756.3455763521 6010124.092444684 0  355615.8176864882 5966311.193813809 0  369144.4338274571 5989807.770003954 0  375185.9047422862 5983510.422041401 0  323455.6100285493 6007641.446150355 0  391856.7960121195 6005888.565703365 0  371978.0245217044 5996361.134308098 0  405920.1480513444 5995895.035784755 0  378877.1880032702 5998073.745937059 0  359056.6617417652 5991643.489540118 0  399278.8743430426 5993436.466134224 0  386116.8775939071 6009922.097099247 0  323455.6100285493 6019387.856515957 0  388994.7833819839 6019826.789191471 0  348897.6207366391 5998116.079250046 0  345456.3301153719 6035064.814295612 0  323455.6100285493 6042880.677247159 0  334124.3013408988 5990072.953472659 0  377097.8989316926 6018059.782440464 0  323455.6100285493 5995895.035784755 0  342871.8474798963 5980154.238874755 0  373596.9793292385 6035659.183886081 0  380149.979919221 6048753.88242996 0  376327.9292813152 6042294.581731233 0  329163.3548105369 6004704.843558955 0  350303.9432136903 6007093.032074522 0  383982.6552804571 6015912.664375832 0  345515.490569988 5988567.439252969 0  379019.812877927 6004678.052169549 0  365541.9137639466 6018750.691894444 0  349225.7781606728 5954782.59950515 0  352493.3399767278 5960815.406895458 0  363683.8130458911 5986976.225872464 0  386666.791301207 5975084.583584332 0  368937.6553346639 5966171.092344863 0  400003.9882214358 5968352.273777306 0  328776.0063842635 5992958.433193355 0  339958.4428758043 5999572.344589042 0  354577.7732363954 6012555.454074449 0  328609.6436549741 6048753.88242996 0  382053.0280278458 5988228.496807038 0  330708.6817934912 5978212.973348036 0  372084.7734679543 5978495.086505585 0  358568.2738174705 5971419.415228934 0  328931.2672829705 5998832.905089681 0  323455.6100285493 6031134.266881558 0  405920.1480513444 5972402.215053552 0  405920.1480513444 6031134.266881558 0  323455.6100285493 5972402.215053552 0  405920.1480513444 5960655.804687951 0  323455.6100285493 5960655.804687951 0  405920.1480513444 6007641.446150355 0  323455.6100285493 5984148.625419153 0  405920.1480513444 6042880.677247159 0  346648.7613474604 5960023.05127712 0  342415.3891593561 5966358.988213831 0  350507.6510228226 5971111.740321856 0  391773.9667214506 5994456.117700323 0  338875.8905424621 6026088.827345025 0  361429.1735454847 6010511.262533597 0  389395.7028803263 6025805.543023561 0  392895.6464692951 6043315.288173481 0  332846.8296575367 6019296.633131165 0  373337.4404588729 6009693.515402478 0  336544.3064612215 6043648.151399015 0  348610.2411382072 6019567.839754772 0  381943.4597763228 6042183.394750732 0  355630.0631288611 6028071.82801846 0  363941.5238882306 6035967.852698964 0  328179.67203552 6022271.326978176 0  401066.2857736665 5998807.415073814 0  344387.1099621175 6029612.545574771 0  393435.2235156003 5960233.556458537 0  400735.9970493424 6022675.638064924 0  393708.5772019727 6029179.837160029 0  400609.0696943338 5987857.851798974 0  361753.6614662939 6001152.171757337 0  400766.1144249197 6048753.88242996 0  353363.0524357285 6002630.165620538 0  343248.328463803 6018790.640008039 0  356419.8105951758 6043365.392189237 0  390234.385899412 6000759.497967276 0  368336.1168551637 6000220.532318851 0  328609.6436549741 5954782.59950515 0  387520.8298169724 6035372.992507171 0  400588.0280660195 6035823.299583429 0  329021.6598427091 6043194.252697862 0  393371.710206733 5983576.325812268 0  393638.9721728675 5973623.513063556 0  371727.9212466564 6017113.044457142 0  364687.2762977295 5959941.212693035 0  374995.9462927962 5960346.83186599 0  369841.9126663716 5954782.59950515 0  400766.1144249197 5954782.59950515 0  338917.7109078234 5954782.59950515 0  369841.9126663716 6048753.88242996 0  359533.8454135222 5954782.59950515 0  390458.0471720704 6048753.88242996 0  338917.7109078234 6048753.88242996 0  390458.0471720704 5954782.59950515 0  359533.8454135222 6048753.88242996 0  380149.979919221 5954782.59950515 0  349225.7781606728 6048753.88242996 0  339867.4956514095 6005339.817053361 0  333737.9460226952 6002130.523287664 0  336955.8140048417 6012008.440073739 0  377097.8989316926 6023232.32559834 0  371748.9790486701 6028016.629988787 0  338146.5171983215 5993298.164761053 0  355016.8390227688 6017610.913088997 0  393953.1528190996 6018968.416019509 0  335185.8133477239 5965142.63403323 0  328616.6041642396 5967263.80307608 0  380314.9487662361 5965460.362415641 0  354622.8993466098 6032976.142863722 0  328521.4725131759 6027215.026914048 0  334465.0783479523 6034070.534389696 0  328123.6212682287 6009699.206425843 0  381889.5169855529 5973936.741901617 0  359122.3484437474 6036790.002992895 0  386341.6533148278 5979963.279841923 0  400798.2159679119 6012477.871311778 0  388538.3765260249 5967461.292146791 0  340833.8784183678 5975728.708105717 0  355307.6239213505 5988552.151815021 0  362181.4274823388 5981261.937800813 0  353784.0322742948 5981044.538811012 0  358045.1698423899 5978741.391518688 0  328423.7350325213 6036912.015930048 0  366897.6876966125 6027277.723668203 0  347355.1745641421 5978532.307510624 0  376820.5060332146 5979033.270735624 0  349378.1778589479 6024378.632814493 0  327189.2282939323 6016451.253924556 0  338433.8773236172 6036753.902881841 0  350141.9760340559 5987605.90026687 0  363794.7083927878 5991713.491814731 0  350325.1285660182 6035273.515460094 0  382355.9358007369 5983507.499638396 0  327107.0747437811 59811
[...]
<PointData  Scalars="f_78871-1"> 
<DataArray  type="Float64"  Name="f_78871-1"  format="ascii">6.5041105920654742e-23  -6.2274695660986664e-22  -2.1903313568620618e-18  5.5085840164733545e-21  1.0436726948464204e-10  7.1525102967611841e-17  1.0571078238907855e-14  1.4722593301234830e-17  -4.9484942356222278e-03  -4.0891270198174593e-18  -7.5761714289599189e-11  3.9928790803944843e-12  -1.3852955822139424e-18  1.0225933832519415e-08  1.5313225541601759e-18  8.6025717348875820e-15  5.7348829830607594e-14  -3.4131027619309228e-12  1.0128116964744859e-05  2.9544112589271131e-05  -1.0369666178321147e-08  -2.4115133462741448e-18  1.2316564439255237e-18  -1.0925929520037856e-12  -3.8849276467767530e-16  1.4881337865189575e-05  3.6794205293046459e-11  1.3243839254637798e-06  6.4839418544375023e-12  4.7938526812778315e-17  7.0491678562568992e-11  -3.4050874470532738e-16  9.0110725470505528e-17  7.9170949567925233e-11  1.7510337826150849e-12  5.5985079229024931e-12  -5.2239298279812804e-07  4.8852810402633664e-07  3.7532052694442237e+00  4.4010183933315109e-08  2.5061738011959397e-04  1.6584726418320325e-13  8.3434555058554653e-20  1.6437087074321418e-18  2.1310726288131938e-13  -9.5426076558859257e-20  -1.9698057651171142e-20  9.6559869050494668e-11  -1.8873027629614835e-16  -7.5623649339979836e-12  1.2045067157825732e-14  5.8219200633433037e-12  -7.9092090777512803e-14  2.8465084273148941e-09  2.0327457826541677e-06  -4.1617935174519264e-03  9.0449993147451521e-07  1.7288352671083611e-16  -1.7684965572761096e-20  1.2808354037075949e-19  -2.0475732436138918e-17  6.1528129736354686e-16  1.1881990179410978e-17  6.2173126022772412e-17  5.1550029664440804e-11  -8.3785335058878173e-09  6.4395367561304569e-09  4.5680289982377063e-10  -2.1873819685968338e-08  7.2135867330808452e-08  1.5910408286145762e-13  6.7109386145110748e-09  -1.5295456317395179e-09  4.5877206478260214e-16  9.0330651785091357e-11  2.8904133815510045e-09  1.5183171210674720e-12  -6.1349027904687209e-20  1.3274872683771522e-11  6.6403141967373220e-14  2.5337348255607761e-17  2.4778118275248763e-02  5.9602303447249679e-11  -3.8430705209120055e-07  4.6836706104405472e-11  -4.7018040813745394e-18  1.2755917075080896e-17  4.8291013761213769e-14  1.9078538761661274e-19  1.4416949974634641e-11  1.7417403085009137e-16  1.9493356417974149e-13  -5.5756657168773197e-17  -3.8205559812537033e-12  4.3225526791884075e-12  7.7224040979912752e-11  4.6830643154450735e-01  1.0077441399097081e-13  -1.6327797810781084e-18  6.8582146017545076e-14  2.3984155160338290e-09  -3.0363638025586367e-05  1.2838011005356995e-06  3.4015892962889781e-18  7.5140753415715995e-15  6.4045425444456367e-09  2.4982184604473381e-13  5.3577488689273599e-11  -3.2157204959260688e-16  8.2198411130047204e-13  5.7061939790270921e-13  1.0732182436116381e-13  5.9058274237125358e-08  -9.5052166208521693e-11  8.4574062603399126e-13  4.1612444188942775e-03  5.0039712953523884e-04  -2.9536601735712756e-17  6.3736355457899028e-07  8.1307542162516011e+00  1.3655576261661138e-10  4.8372768161675239e-01  2.2394902846767183e-04  5.2520513410665341e-08  -6.1150541399112322e-08  -1.3412314765010975e-17  1.6482343746354725e-10  1.4133065708514924e-06  4.7519561788944726e-14  -2.2433751032974492e-21  3.6361252411564027e-12  8.9298357213398048e-07  3.1976748194500665e-16  4.6643648439170310e-12  3.1217831282256022e-13  3.5375598552524359e-19  -6.0307136463953130e-16  5.1902263433916502e-14  6.3176115245044178e-07  4.2953597718528119e-08  -1.9586595119150062e-10  -7.1716920270844259e-05  -1.0380129360563487e-07  -5.7488855235662008e-18  -1.2916402875319049e-17  1.2775347484443705e-04  2.1919030906234456e-07  1.0001755427470596e-10  5.2392416962948619e-13  3.0727155417007541e-15  -4.8669216931229429e-10  2.8140183553272947e-06  -5.5398437192650328e-22  7.7201823923868243e-03  1.3482636403978254e-17  -1.4467397237541267e-07  6.0289708167190291e-10  1.0488327633797497e-15  1.4400990700330224e-19  2.4000091257281999e-12  1.8646103562269390e-16  -1.3573417084794081e-19  2.8522215699535259e-17  2.1384234489732305e-21  2.8786566775658527e-11  -5.1404289739209381e-17  -9.8902797651248560e-20  1.0749803581061285e-16  6.6362259279634581e-16  -1.8279440128208011e-13  1.3539155733281443e-05  5.5680837788569945e-14  2.5213521109421444e-04  3.6932847106937636e-12  -3.1854977311771479e-18  1.0855515482519848e-13  2.6640770833350586e-04  -3.1277300657528567e-19  4.4710641020879095e-09  3.6041562877019403e-17  3.6636450906422184e-10  3.7481449664837308e-13  1.1164840038512381e-16  1.1636730938911501e-09  1.3407703106779163e-12  4.8001088511592835e-13  3.5538840998812774e-13  3.0206194534721604e-14  1.7802031088192230e-09  1.5425113208996868e-01  -7.2203886366436334e-21  1.0352084150616232e-04  -1.1601062923715942e-11  -1.1441233717163215e-16  1.7944151773250587e-06  8.9774811407936816e+00  -4.6814437979056772e-21  -5.5080423944033309e-16  -3.4853615152791065e-17  8.0775092783309539e-21  3.4603217177062663e-07  1.7203491138323641e-09  6.4551159017849890e-09  8.4705180766223666e-13  5.4263880029651811e-13  2.2504631142225833e-16  1.2041867086490920e-16  -6.1820114327488177e-19  1.0815249920632647e-17  -3.6860072619901565e-17  -2.3473432389621946e-19  -4.6451477160566967e-20  1.5488167751554417e-16  -2.2586123142109634e-17  9.5375794458596686e-16  -2.1748117091836020e-17  -2.1653164307186713e-10  2.3165215569556938e-13  5.8587520761764951e-11  -4.9951335459107574e-10  8.5883641790633531e-11  5.6719829103073093e-11  2.4743519198466365e-07  1.3037429420526802e-11  -1.0431802325015863e-17  -1.1003595069425768e-20  1.1292512031627994e-11  3.0952929126188604e-11  3.3473518376828171e-17  -1.0680206345635564e-17  1.4715093218829001e-13  2.6433895569547869e-08  1.1022152695340596e-12  -2.1628870208702188e-07  8.9398405890435644e-11  1.7637409734058946e-10  3.2753272062900026e-13  2.4675151219415535e-07  6.4200525197010971e-09  -2.3796467506624793e-10  9.9183978068147020e-09  5.6570976004227115e-20  5.2514677055034991e-10  1.3644157793879218e-11  1.0626222573671832e-06  5.8522841367181194e-10  5.2525678541267320e-17  -4.4887458610834736e-19  2.3611806583186417e-08  1.9355477574940698e-03  4.7449203525069751e-14  6.8471090646258625e-04  9.0726945827646787e-19  -3.6130892618679554e-14  1.1802575105910698e-15  -1.7509709538370563e-03  3.3808992745052231e-09  -6.1834456929928201e-11  4.8463817078614352e-07  1.8520719023654731e-16  3.8324489277725912e-17  2.6223138420042789e-12  -1.3711978786032606e-18  2.0304899606947958e-16  -5.8263249733223143e-10  1.8772138309443182e-05  4.1954071930508811e-17  1.2709031285336288e-04  2.1234094700724999e-12  -2.2001566887094616e-08  7.1410709528051271e-05  1.1218140028178158e+00  2.3988674378048022e-08  1.1234324668196642e-13  1.5102536045263761e-08  1.0538771931125441e-09  6.1842297210721810e-08  2.6364473022698199e-08  3.1752800201704334e-05  -4.2002183916866805e-12  -1.7048605499540315e-10  1.7767094611068365e-10  8.2524937166155942e-07  -4.9623231082681616e-06  1.3039188571931177e-03  -1.3928248720211423e-17  9.8045981047043698e-09  -1.3266381970134604e-18  6.9400742812602114e-14  1.3823567728344990e-08  2.3597356969199859e-11  2.6177800386311131e-09  -9.6550983268550526e-19  -7.5236778687914066e-12  1.5792302030771376e-12  9.6967730579581926e-03  -1.6940567465713748e-15  -6.4153746213748080e-19  -5.6157431864717958e-18  1.4979298759104680e-05  1.2571147025856655e-14  -8.3840118056962286e-14  2.8963817112741910e-19  7.4019305405588626e-11  -2.2928726147227962e-20  3.0503733071863745e-19  -2.0435020334007777e-20  2.2877171817710894e-02  1.0649936810699966e-16  1.3201137210558931e-02  3.1190006578235481e-16  -2.5343347581172905e-20  5.7401265260697587e-17  4.9596288684146016e-12  3.4346595382186527e-12  7.0301533385803845e-14  2.1899584222903326e-09  3.9782916370890416e-12  4.3676183465393119e-14  4.6095118860675163e-14  7.7950956540449755e-12  4.0672134149353060e-07  7.9085921691800915e-04  1.6849175138570005e-03  1.4260565896368835e-17  6.4611713391121193e-10  3.5692701391568137e-13  4.1181969484978428e-21  -8.2779302305191473e-20  3.7962375573769946e-11  4.3137858975064050e-11  1.4777350497751515e-11  5.6947484643929560e-12  2.1482368846277138e-15  1.1704269047294173e-15  -9.3445270362060131e-16  3.2097368671843028e-05  1.2167981983988052e-09  3.2949142649089290e-13  8.3497769953844566e-09  1.3670415252438521e-02  -1.5085051201108577e-03  1.2227480721344078e-01  -8.7758982788020672e-03  4.9940660802285877e-16  -2.4339799187087792e-07  -2.5575524678603553e-12  4.6133700029696262e-12  1.2872932338306087e-11  1.1550556171334954e-09  -1.2339427260756823e-22  2.1867691169835768e-20  7.0769214005747710e-07  1.0328311170381923e-12  6.1690431567328484e-14  6.9977620723239730e-06  -9.9133832512638968e-16  5.7191546322485464e-09  3.6204138626461469e-17  2.6946482284753296e-08  4.2271495988881741e-08  -1.8372853912519188e-16  2.0211517685752995e-19  4.0764971472035191e-04  1.4092185803387487e-07  -5.0350216112523473e-14  5.9272679988861945e-12  8.8559843221529688e-12  -2.4305755600407040e-20  -1.1099270936333509e-17  -7.3356532744503191e-17  3.6266809698467053e-03  2.7257025818017058e-09  8.1447090049357019e-16  -8.4002387082236103e-15  -3.9605322382396698e-13  3.6811645034111666e-12  4.0801474749894547e-14  5.4481696256555517e-14  6.8047178086400855e-07  5.2789586354922462e-07  8.6920823521651093e-12  1.8191133497964027e-19  -4.1572294221471886e-13  6.1912994106751096e-10  6.7604929122464526e-17  6.0755284801252656e-12  2.8490126431950910e-04  3.7813444206319887e-09  4.5700564946448146e-12  9.9688150204824687e-14  -1.8571633575124476e-15  3.0388341544656074e-20  -1.0283026242778135e-13  8.9717363961579565e-05  1.4014528703067514e-09  3.4923850374250305e-12  1.0378733323627887e-09  -2.4262674295560753e-12  1.1410158096383581e-11  -3.3396809584873164e-10  1.1910590275849850e-11  1.5821727802119460e-17  2.4727204750039558e-13  3.8977301542841646e-07  4.1608444593462114e-08  5.0394114765303643e-08  3.9667440815464436e-07  2.5192349228827652e-06  5.7602466920203020e-10  1.5252518305565385e-08  1.5225455171265190e-13  1.3191635260487883e-13  1.0220006126955496e-04  8.8221274275562833e-19  6.5848835065238911e-04  1.1834237434759389e+01  -8.0189968221754606e-19  5.4996307414512196e-14  2.0956507352879808e-06  4.9322778275047134e-12  1.4664768068626920e-04  1.3580323233255721e-13  -7.5501528119824681e-18  -2.9420170805239111e-17  -7.7976898403468001e-18  -3.4705550581458207e-17  3.7187614891156975e-09  4.5914530781489485e-08  6.2676849530520083e-13  1.0637711702340454e-10  -4.6634999211498401e-17  3.4874851197444051e-07  3.6714671264082969e-06  6.7595192711122602e-06  1.7680149302859396e-09  7.8179563420951053e-13  1.2405979082907876e-09  2.6871646459633197e-05  2.6396163631763881e-06  -5.9465769566067354e-06  2.8807147470840878e-10  -3.1260871250362126e-12  3.7982997630111184e+00  4.1208270661974851e-18  -1.8117497460666506e-11  -6.1924829777340377e-11  7.0531647079365084e-08  1.4288343938728200e-13  6.6787810022321409e-12  -8.1531711557923143e-17  6.1517936472467740e+00  3.5690182643539838e-06  2.8092034929370812e-14  -1.8255167978127258e-08  5.9946416640288727e-11  1.0296055058920215e-16  -4.4997774847915110e-11  -5.1675077508133788e-13  1.1915425153864816e-06  2.9241578228277164e-14  1.1377870283221024e-14  3.2669678513774105e-12  -5.4402538129709947e-12  1.0904759828225727e-18  1.6509424410296547e-11  1.0199014699573408e-16  2.5318615124269212e-08  6.1799872870846016e-11  2.2213992451248889e-07  -5.6618478926822816e-16  5.3482002780768504e-08  1.4958340590446798e-11  -1.0722021669663724e-18  5.8330692820595926e+00  1.3190879665267358e-14  2.4841640353045064e-10  1.3019307459568297e-11  2.5172007219774660e-08  -3.6692001957215918e-08  1.1446775970926874e-16  4.0785417666788612e-09  2.1149176895672278e-02  8.2783843175364792e-13  -1.0596418282772301e-11  9.8010562460383510e-12  2.3030665014089625e-13  9.1968974850191197e-18  7.2294508295651292e-12  2.8752865228648973e-05  7.5286061301975549e+00  7.8542321775832791e-11  1.3248136794124710e-10  1.6868553149086476e-20  7.1105302313743801e-10  4.8007559265747717e-08  1.4923512875445959e-06  3.1470647761849652e-14  1.7229542942091168e-15  4.5504503823314363e-16  4.3700833865108946e-08  2.6079596106179431e-18  2.6141538422058649e-18  -4.7378157012200920e-19  1.4891464502395077e-16  2.6411467758389861e-08  -2.8758517550216080e-07  1.9493525182396921e-08  -3.3689279155064784e-16  1.1817724498044367e-06  2.3972587307050030e-14  3.5818389728916398e-08  9.4482519761101255e-14  4.8280861051123657e-05  -6.3728792342924598e-08  9.0876001030264735e-09  1.7057745103495800e-10  -1.8096133942381192e-10  4.0559563166888062e-10  -4.2068106843603853e-03  1.0816336779927002e-03  4.4147797357944065e-05  2.2810452862072213e-07  3.0956299120397528e-14  4.4603649151505670e-03  8.7641957913255618e-17  -7.7551015482572951e-16  6.4389986395586932e-16  1.7971073450740905e-16  3.1995554416225717e-16  3.9911426358582206e-15  -1.3764620612275045e-20  1.1777404808157466e-06  -2.8315640972883385e-16  7.7725058016595618e-19  4.3516396874694207e-18  -6.0012673584331016e-15  3.6939292093303220e-13  2.8532637432074779e-09  4.0190282174595180e-22  1.8086216128998940e-21  1.6323841335518162e-14  1.3235740111662304e-23  -3.9385241192225689e-07  1.7777738003044085e-05  6.4693152424850355e-05  2.7021018894124991e-04  -2.1418582439368771e-14  2.6327397985917063e-05  7.9334641353927648e-19  5.2254029515622861e-08  3.1568857881868962e-12  8.3538134543580756e-11  2.1393296336671322e-10  7.3244523678525430e-11  5.3615355846725178e-07  -1.0401826477396474e-19  -1.5097163812519913e-19  1.6316105879750052e-17  2.9312041720879067e-18  1.1917297927483367e-15  2.5710443369768157e-13  5.5933520636117603e-08  -8.1333743425147972e-12  -4.5572611633214870e-17  6.5947355200427231e-08  1.7657315326457917e-10  7.7752767464341615e-09  2.3303313096449148e-05  1.2208592088090164e-12  7.7020234589787337e-17  2.1635188461997729e-14  -1.7757898094425697e-16  4.7769345961510688e-13  -1.7575003875836984e-13  2.5905285324442167e-14  -6.1466005905612130e-17  1.2568411502633329e-13  6.1452865950978989e-13  1.1184407305218721e-12  -8.5461137745142857e-17  8.2793221742675804e+00  2.4145064822383350e-02  1.5558532651819097e-08  6.1350081651976481e-19  -2.8300585507682053e-17  -2.8107240692615256e-16  -3.5840407686120922e-17  -5.4514477138798850e-21  -4.2117657615230555e-17  -1.7151097213555436e-20  4.4142550666127845e-03  -6.4661999245697252e-03  6.0888433767337058e-13  2.2597430043487170e-12  5.9796183527494010e-11  -7.2220717750131202e-17  6.4642846782217393e-18  1.6533392557942393e-11  1.1751656593830790e-07  1.0066579478596452e-08  1.0517540814766957e-04  8.8386155307409178e-11  2.0420687018228258e-06  2.5831179890612745e-03  3.9250442985102659e-03  -1.2529936830284941e-12  1.7137923598846431e-13  5.5373034228118573e-14  2.9955236767557455e-13  -6.5140295154887076e-16  -3.2606581281982221e-17  -2.8443257860707308e-13  6.9598910702001164e-18  1.7848595704142709e-20  1.6831101990062693e-12  -6.6696052711157534e-16  1.1759168857707754e-16  -1.7896115178472487e-20  8.3338073133462229e-19  2.1470144603575977e-11  1.3450846400691229e-17  6.7611328816350211e-11  2.2687396218274613e-13  -1.1186003425246773e-13  1.3934341014145799e-15  1.2318346092687230e-06  2.2401784047315141e-10  6.4443579385298554e-10  3.8835485215255120e-11  1.1816025334080977e-17  -1.3245271099503058e-17  -1.4960798799125430e-18  1.5176084510107188e-20  -4.2593043170932378e-18  8.6013960888378795e-20  1.3278247190678691e-10  1.0620717235395264e-08  -8.0237096015897689e-15  1.0879341397031083e-12  6.1399332543092597e-08  5.3548887437894526e-07  -4.0921651322913353e-12  -5.0630226355766826e-12  9.1071649717335454e-10  3.1527540885723786e-09  1.8827651827919093e-11  5.0689601083857313e-15  -3.1826334358164808e-18  2.9553591206333549e-15  1.2182930726614504e-12  3.9140348612753399e-14  5.2110934007314222e-16  3.9212577648331781e-04  6.0976575292974318e-10  -1.3221804194746556e-15  3.8673817444970567e-05  1.1686699754817435e-11  1.3378975943198692e-11  2.3454266030699824e-13  6.1976209537965829e-10  2.5837319520342152e-02  5.2846453052460515e-21  -2.6126102249972957e-21  7.2742576439473364e-07  -6.0873803633349315e-20  1.3348914567234917e-17  5.9533245424106306e-03  7.5162952253523430e-01  -2.0402991776420922e-03  1.5171584335196119e-17  4.5814508552035779e-14  7.8973278294208693e-02  2.1405082234657781e-08  2.8600701518622511e-18  -9.1171290298948868e-03  4.4613620061693546e-16  1.8651926148194669e-21  1.8610383745134568e-12  -2.2159588386327606e-18  6.7793395251756501e-16  -1.2308352813003961e-10  -4.0857082171971595e-17  4.2966215789684245e-11  3.1074614265632415e-16  2.4618491608356858e-04  1.5381039257737176e-09  9.2391236800258951e-03  9.7435922456320003e-08  -8.0082499935402592e-16  1.5887774368943695e-05  -4.5621087197265687e-14  2.1094039698130754e-10  2.3591317282361499e-17  -1.2323097786274009e-12  1.4983165919753591e-16  6.3016063751632728e-18  1.1347550738085255e-09  7.9448768195922238e-10  1.7935756097250794e-17  1.1474213938550333e-08  9.8939814285806178e-07  8.6286791082483908e-07  9.1956993885186389e-05  -1.7763396325505019e-16  6.2339889839776985e-13  1.3238024851924137e-09  1.6140122879567468e-11  2.4411161508123349e-04  2.0719445832674579e-14  1.3635379668269307e-14  2.2363559942083940e-16  6.8550915822889602e-14  1.4016442939537943e-12  -1.1366074971122807e-16  1.0476402795898416e-16  7.9757498689749493e+00  1.2936804234860858e-02  2.2279973878324719e-05  1.2240386799544273e-04  -9.3749435892866235e-08  5.1653993849948595e-05  1.8824593235966429e-06  4.7171523928170933e-10  6.4375779118363642e-12  3.8129131011089754e-05  -2.9640702522846910e-19  3.2022514468842745e-10  -1.9551808348754664e-16  -7.9048581945710645e-09  6.5099353736324169e-08  2.4931717836838770e-07  1.7819609919103456e-05  4.1368041360814332e-17  -8.4145089808370830e-18  1.0132874441532639e-08  -8.9216878158576744e-12  4.9072094696743638e-12  -3.6981543510576104e-17  -1.7703905095425865e-16  6.6410658439586848e-08  1.0995432558001196e-09  2.2274489936816961e-17  1.7556885791601271e-17  3.7500024228754952e-14  8.4130639547803081e-10  3.2763390818515757e-11  1.0539962831613621e-10  2.9905258697174779e-10  2.3008867823175458e-07  1.7612821616369420e-10  1.9203070706904384e-05  -2.8180628364292789e-20  3.1369211122654713e-18  1.0822694282074677e-16  -6.3717379063983621e-12  1.4119216138309037e-12  7.4490298177088713e-18  -9.5097207196555697e-20  -7.6345333731440015e-20  -2.7869117156747652e-18  6.5626458724671586e-12  1.3634816008176827e-10  1.3487627231517433e-11  3.3308718111521926e-08  -9.7861964542910702e-09  3.1684097011969524e-09  3.6413985443225944e-14  4.3384345531771315e-08  6.0956014725090488e-13  1.0320309235909758e-06  -5.1001784291133887e-18  2.0317362716543801e-13  5.7243431260342571e-15  7.9129416537855292e-13  -2.8989773942826505e-14  2.1256909081952326e-13  2.0759319928389563e-13  4.0155408460914471e-11  1.3138771821344796e-11  6.1860105793167704e-11  2.5813843506661689e-10  2.2426644642423787e-19  -1.7613727045940205e-22  -8.0438411591068545e-17  3.2166949341350227e-14  3.2455567169652666e-19  -2.0447381518126804e-18  -1.4837741535198490e-19  1.0215661429515947e-17  -3.7106465753338288e-16  -6.5554599731895100e-16  6.6507565750006572e-16  3.2422460648581646e-17  2.2493714524948908e-16  1.6073644216446336e-20  7.1974900242470874e-18  -2.1231211793529495e-20  6.5195866308871228e-20  1.5150858714986677e-19  3.7336064298834593e-01  4.7861304843822813e-07  -1.4784499635225288e-09  -6.4052747814873402e-10  -2.2487899698302830e-18  -1.2311598510922280e-16  -3.3223982499690290e-17  4.9264458156385484e-20  1.5730242395684467e-05  -3.1401082202676478e-13  3.9902135151251754e-18  2.0244441923689342e-05  5.7847815854458141e-19  2.3746863552689725e-09  -1.0096542276020179e-13  1.0057417093471700e-07  -4.0890962879573534e-16  3.0103945344833521e-04  1.0382292642870520e-09  1.9702877554642276e-11  -1.73500