<?xml version="1.0"?>
<VTKFile type="UnstructuredGrid"  version="0.1"  >
<UnstructuredGrid>
<Piece  NumberOfPoints="3002" NumberOfCells="5870">
<Points>
<DataArray  type="Float64"  NumberOfComponents="3"  format="ascii">323455.6100285493 6048753.88242996 0  323455.6100285493 5954782.59950515 0  405920.1480513444 5954782.59950515 0  405920.1480513444 6048753.88242996 0  405920.1480513444 6001768.240967555 0  323455.6100285493 6001768.240967555 0  364687.8790399469 5954782.59950515 0  364687.8790399469 6048753.88242996 0  364687.8790399469 5996367.117560402 0  323455.6100285493 6025261.061698757 0  382226.6271443229 6022560.499995181 0  405920.1480513444 5978275.420236353 0  323455.6100285493 5978275.420236353 0  353897.8957397301 6022560.499995181 0  344071.7445342481 5954782.59950515 0  385304.0135456456 5954782.59950515 0  405920.1480513444 6025261.061698757 0  354379.8117870975 5975574.858532775 0  381582.8168806895 5978840.396198289 0  384950.2598624413 6001768.240967555 0  344643.0480768835 6003429.02033719 0  344071.7445342481 6048753.88242996 0  385304.0135456456 6048753.88242996 0  339717.0321562298 5986078.187627405 0  337515.036058786 5969821.016310448 0  368062.2614420265 6013076.224998265 0  368062.2614420265 6032044.774992097 0  393987.6142659165 5988729.699941677 0  405920.1480513444 6013514.651333156 0  392856.2821527076 6034589.119828064 0  393514.9611654527 5968369.338068204 0  339399.8087404341 6032061.482581838 0  323455.6100285493 6013514.651333156 0  374995.9462927963 5965504.865595459 0  354379.8117870975 6037976.901948514 0  338123.9088969378 6017031.529131207 0  367397.3120126425 5982072.559192053 0  351882.5752379905 5991998.990225234 0  376945.425450199 5991232.708824487 0  392265.0061656896 6013300.936254065 0  357029.7426706699 6006608.947964352 0  380093.6207558212 6036880.127749795 0  323455.6100285493 5966529.009870751 0  405920.1480513444 6037007.472064359 0  405920.1480513444 5966529.009870751 0  323455.6100285493 6037007.472064359 0  333763.6772813987 6048753.88242996 0  405920.1480513444 5990021.830601954 0  323455.6100285493 5990021.830601954 0  362879.3643765316 5966837.319094267 0  348367.6438548031 5965604.161682394 0  334493.1989038612 5996935.948935225 0  395068.5043068817 6023875.372615605 0  348216.0324377587 6013504.844950221 0  379305.9090074943 6011603.390019651 0  372523.5158233726 6003480.000732267 0  395435.2039568929 5999384.346358113 0  395612.080798495 5954782.59950515 0  333763.6772813987 5954782.59950515 0  395612.080798495 6048753.88242996 0  374995.9462927963 6048753.88242996 0  374995.9462927963 5954782.59950515 0  354379.8117870975 6048753.88242996 0  354379.8117870975 5954782.59950515 0  335074.5981535012 6007206.680367459 0  391925.2695590468 5978591.908877409 0  371969.1707190623 6022560.499995181 0  383872.162544519 5969415.106147043 0  358038.7139835292 5984533.09712744 0  369699.869182786 5973102.2359358 0  369841.9126663716 6041099.453006387 0  343176.7440329155 5994428.220622956 0  362933.5332293962 6024385.235173292 0  330640.1760208776 5984148.625419154 0  348684.7494355051 5983110.856817525 0  399094.9690929834 6007537.420809742 0  345447.6324516311 5974162.84917082 0  332859.7749513451 6039150.972778062 0  344517.044630671 6024057.945416138 0  332973.1214415312 6025037.914505113 0  341428.0126373461 6040493.820728126 0  385874.264691618 5992757.40885039 0  350337.3662538711 6030387.535304286 0  359887.2373602368 6016186.250094838 0  377097.8989316926 6029115.217702097 0  338917.7109078235 5961484.016839475 0  329495.5261590715 5972402.215053552 0  336644.7280634616 5978216.610794215 0  330688.6715098422 5962480.256438018 0  359899.8039476132 6031963.415584587 0  399746.255941904 6030426.523907755 0  385511.6875144855 6030368.508996127 0  387377.735783329 6040763.821024337 0  398832.192399829 5974431.100387635 0  387992.9498994246 5962432.032572681 0  405920.1480513444 5984148.625419153 0  364925.7641745284 6005782.953640081 0  361769.877068089 6041226.651684469 0  398452.9199001931 6040850.732439541 0  398946.6205243983 5962252.502309519 0  362305.5577564609 5975984.89789681 0  356822.8065216601 5998470.186307689 0  386900.7115926162 5984820.732438302 0  329528.0119279922 6032067.230024892 0  331139.6939744562 6013813.572928222 0  398457.5876798834 5982541.698799337 0  405920.1480513444 6019387.856515957 0  398685.5166750694 6017257.578706384 0  348587.9424884976 6042755.309150081 0  369841.9126663716 5960143.732550304 0  380149.979919221 5960143.732550304 0  359533.8454135222 5960172.384722514 0  377147.8814772839 5972649.581024994 0  341756.3455763521 6010124.092444684 0  355615.8176864882 5966311.193813809 0  369144.4338274571 5989807.770003954 0  375185.9047422862 5983510.422041401 0  323455.6100285493 6007641.446150355 0  391856.7960121195 6005888.565703365 0  371978.0245217044 5996361.134308098 0  405920.1480513444 5995895.035784755 0  378877.1880032702 5998073.745937059 0  359056.6617417652 5991643.489540118 0  399278.8743430426 5993436.466134224 0  386116.8775939071 6009922.097099247 0  323455.6100285493 6019387.856515957 0  388994.7833819839 6019826.789191471 0  348897.6207366391 5998116.079250046 0  345456.3301153719 6035064.814295612 0  323455.6100285493 6042880.677247159 0  334124.3013408988 5990072.953472659 0  377097.8989316926 6018059.782440464 0  323455.6100285493 5995895.035784755 0  342871.8474798963 5980154.238874755 0  373596.9793292385 6035659.183886081 0  380149.979919221 6048753.88242996 0  376327.9292813152 6042294.581731233 0  329163.3548105369 6004704.843558955 0  350303.9432136903 6007093.032074522 0  383982.6552804571 6015912.664375832 0  345515.490569988 5988567.439252969 0  379019.812877927 6004678.052169549 0  365541.9137639466 6018750.691894444 0  349225.7781606728 5954782.59950515 0  352493.3399767278 5960815.406895458 0  363683.8130458911 5986976.225872464 0  386666.791301207 5975084.583584332 0  368937.6553346639 5966171.092344863 0  400003.9882214358 5968352.273777306 0  328776.0063842635 5992958.433193355 0  339958.4428758043 5999572.344589042 0  354577.7732363954 6012555.454074449 0  328609.6436549741 6048753.88242996 0  382053.0280278458 5988228.496807038 0  330708.6817934912 5978212.973348036 0  372084.7734679543 5978495.086505585 0  358568.2738174705 5971419.415228934 0  328931.2672829705 5998832.905089681 0  323455.6100285493 6031134.266881558 0  405920.1480513444 5972402.215053552 0  405920.1480513444 6031134.266881558 0  323455.6100285493 5972402.215053552 0  405920.1480513444 5960655.804687951 0  323455.6100285493 5960655.804687951 0  405920.1480513444 6007641.446150355 0  323455.6100285493 5984148.625419153 0  405920.1480513444 6042880.677247159 0  346648.7613474604 5960023.05127712 0  342415.3891593561 5966358.988213831 0  350507.6510228226 5971111.740321856 0  391773.9667214506 5994456.117700323 0  338875.8905424621 6026088.827345025 0  361429.1735454847 6010511.262533597 0  389395.7028803263 6025805.543023561 0  392895.6464692951 6043315.288173481 0  332846.8296575367 6019296.633131165 0  373337.4404588729 6009693.515402478 0  336544.3064612215 6043648.151399015 0  348610.2411382072 6019567.839754772 0  381943.4597763228 6042183.394750732 0  355630.0631288611 6028071.82801846 0  363941.5238882306 6035967.852698964 0  328179.67203552 6022271.326978176 0  401066.2857736665 5998807.415073814 0  344387.1099621175 6029612.545574771 0  393435.2235156003 5960233.556458537 0  400735.9970493424 6022675.638064924 0  393708.5772019727 6029179.837160029 0  400609.0696943338 5987857.851798974 0  361753.6614662939 6001152.171757337 0  400766.1144249197 6048753.88242996 0  353363.0524357285 6002630.165620538 0  343248.328463803 6018790.640008039 0  356419.8105951758 6043365.392189237 0  390234.385899412 6000759.497967276 0  368336.1168551637 6000220.532318851 0  328609.6436549741 5954782.59950515 0  387520.8298169724 6035372.992507171 0  400588.0280660195 6035823.299583429 0  329021.6598427091 6043194.252697862 0  393371.710206733 5983576.325812268 0  393638.9721728675 5973623.513063556 0  371727.9212466564 6017113.044457142 0  364687.2762977295 5959941.212693035 0  374995.9462927962 5960346.83186599 0  369841.9126663716 5954782.59950515 0  400766.1144249197 5954782.59950515 0  338917.7109078234 5954782.59950515 0  369841.9126663716 6048753.88242996 0  359533.8454135222 5954782.59950515 0  390458.0471720704 6048753.88242996 0  338917.7109078234 6048753.88242996 0  390458.0471720704 5954782.59950515 0  359533.8454135222 6048753.88242996 0  380149.979919221 5954782.59950515 0  349225.7781606728 6048753.88242996 0  339867.4956514095 6005339.817053361 0  333737.9460226952 6002130.523287664 0  336955.8140048417 6012008.440073739 0  377097.8989316926 6023232.32559834 0  371748.9790486701 6028016.629988787 0  338146.5171983215 5993298.164761053 0  355016.8390227688 6017610.913088997 0  393953.1528190996 6018968.416019509 0  335185.8133477239 5965142.63403323 0  328616.6041642396 5967263.80307608 0  380314.9487662361 5965460.362415641 0  354622.8993466098 6032976.142863722 0  328521.4725131759 6027215.026914048 0  334465.0783479523 6034070.534389696 0  328123.6212682287 6009699.206425843 0  381889.5169855529 5973936.741901617 0  359122.3484437474 6036790.002992895 0  386341.6533148278 5979963.279841923 0  400798.2159679119 6012477.871311778 0  388538.3765260249 5967461.292146791 0  340833.8784183678 5975728.708105717 0  355307.6239213505 5988552.151815021 0  362181.4274823388 5981261.937800813 0  353784.0322742948 5981044.538811012 0  358045.1698423899 5978741.391518688 0  328423.7350325213 6036912.015930048 0  366897.6876966125 6027277.723668203 0  347355.1745641421 5978532.307510624 0  376820.5060332146 5979033.270735624 0  349378.1778589479 6024378.632814493 0  327189.2282939323 6016451.253924556 0  338433.8773236172 6036753.902881841 0  350141.9760340559 5987605.90026687 0  363794.7083927878 5991713.491814731 0  350325.1285660182 6035273.515460094 0  382355.9358007369 5983507.499638396 0  327107.0747437811 59811
[...]
<PointData  Scalars="f_78871-0"> 
<DataArray  type="Float64"  Name="f_78871-0"  format="ascii">2.4751805085970730e+07  2.4752330866031300e+07  2.4752622124660484e+07  2.4752048116305850e+07  2.4752473800505042e+07  2.4752116973001871e+07  2.4752507570122294e+07  2.4751949587870140e+07  2.4752613992737677e+07  2.4751905244860251e+07  2.4752215809642747e+07  2.4752609818388037e+07  2.4752277793979615e+07  2.4752071616619222e+07  2.4752386146089654e+07  2.4752597882678047e+07  2.4752184913341194e+07  2.4752440203469623e+07  2.4752627808064796e+07  2.4752603017085016e+07  2.4752209618600231e+07  2.4751851141807973e+07  2.4752024814312041e+07  2.4752290681180976e+07  2.4752339769756734e+07  2.4752370724985246e+07  2.4752048967521127e+07  2.4752610625256673e+07  2.4752328772429243e+07  2.4752093611119796e+07  2.4752616137311816e+07  2.4751891867185358e+07  2.4752008333051328e+07  2.4752568490809642e+07  2.4751929273212977e+07  2.4752017083325587e+07  2.4752579238818109e+07  2.4752383710920874e+07  2.4787649106063031e+07  2.4752351035183508e+07  2.4752367485181570e+07  2.4752052460606281e+07  2.4752317763484012e+07  2.4752084083482485e+07  2.4752620240490600e+07  2.4751831628723774e+07  2.4751817320744481e+07  2.4752570687205989e+07  2.4752210125628140e+07  2.4752501341596387e+07  2.4752404317950163e+07  2.4752186293407332e+07  2.4752201343664069e+07  2.4752136314724948e+07  2.4752420038769748e+07  2.4752651928483538e+07  2.4752530348176539e+07  2.4752616615397800e+07  2.4752345383314800e+07  2.4752042503339186e+07  2.4751993543128800e+07  2.4752561474411290e+07  2.4751898675272990e+07  2.4752444550840262e+07  2.4752098038342126e+07  2.4752621704638679e+07  2.4752192045923192e+07  2.4752604442542076e+07  2.4752479491318665e+07  2.4752557145247161e+07  2.4751990511826012e+07  2.4752268622564580e+07  2.4752114719271578e+07  2.4752257906552054e+07  2.4752376815347061e+07  2.4752414543880526e+07  2.4752373017714482e+07  2.4751833878203005e+07  2.4751985347075235e+07  2.4751921495347958e+07  2.4751855755553219e+07  2.4752945643102881e+07  2.4751961923137836e+07  2.4752227806885902e+07  2.4752116826779865e+07  2.4752359564112302e+07  2.4752307166587029e+07  2.4752309294102702e+07  2.4752332724743783e+07  2.4752005768816341e+07  2.4752132851199441e+07  2.4752121437997971e+07  2.4752047653703645e+07  2.4752616328912772e+07  2.4752606170397174e+07  2.4752595891842104e+07  2.4757173201513063e+07  2.4751951734539758e+07  2.4752061895765942e+07  2.4752619452282224e+07  2.4752509688311193e+07  2.4752431121904552e+07  2.4752648845730960e+07  2.4751862797204297e+07  2.4752017571901251e+07  2.4752607636497673e+07  2.4752253501522180e+07  2.4752283811036300e+07  2.4751879605945759e+07  2.4752537814100731e+07  2.4752583536730863e+07  2.4752476761464681e+07  2.4752592718886375e+07  2.4752114039857015e+07  2.4752451494194914e+07  2.4752720822741412e+07  2.4752647938811366e+07  2.4752063211652029e+07  2.4752467995402724e+07  2.4823228728865050e+07  2.4752530435267162e+07  2.4757831074034315e+07  2.4752502131954174e+07  2.4752561511187535e+07  2.4752430775889657e+07  2.4751954515878506e+07  2.4752257263784043e+07  2.4752306704707075e+07  2.4751900133700993e+07  2.4751811784317508e+07  2.4752234777887788e+07  2.4752285977005824e+07  2.4752166454625119e+07  2.4752338390078470e+07  2.4752040131524477e+07  2.4752010847887419e+07  2.4752010833354548e+07  2.4752098028651390e+07  2.4752240813868966e+07  2.4752325455330081e+07  2.4752325516009528e+07  2.4752596352965128e+07  2.4752227332267672e+07  2.4752413892225511e+07  2.4752432324711140e+07  2.4752564534628443e+07  2.4752618891719785e+07  2.4752538444055744e+07  2.4752618853760641e+07  2.4752195403300647e+07  2.4752200619130153e+07  2.4752225984355588e+07  2.4751808301705956e+07  2.4752798422981802e+07  2.4752287739717394e+07  2.4752593563065797e+07  2.4752473809167124e+07  2.4752149313234992e+07  2.4751863583970137e+07  2.4752616930903286e+07  2.4752127239160642e+07  2.4752301298004150e+07  2.4752621675869253e+07  2.4752327691082712e+07  2.4752404513192199e+07  2.4752247585666485e+07  2.4752057267614447e+07  2.4752398257166754e+07  2.4752369602676719e+07  2.4752413173913956e+07  2.4752605817574952e+07  2.4751935639160126e+07  2.4752375485850561e+07  2.4752176957175344e+07  2.4752047292762071e+07  2.4751971436267715e+07  2.4752472352254901e+07  2.4751830019528750e+07  2.4752064706211776e+07  2.4752028788944248e+07  2.4752018553758062e+07  2.4751993895338137e+07  2.4751933367863506e+07  2.4752510716898661e+07  2.4751934101556845e+07  2.4752614290616702e+07  2.4752214607127313e+07  2.4752141973807052e+07  2.4752587417175114e+07  2.4753989652431257e+07  2.4752046906685885e+07  2.4752338153756294e+07  2.4752031643339626e+07  2.4751916807060167e+07  2.4752557709448457e+07  2.4830284103918161e+07  2.4752334532976203e+07  2.4752080216725867e+07  2.4752090384406950e+07  2.4751814808278460e+07  2.4752619909940314e+07  2.4752617847480871e+07  2.4752292385213733e+07  2.4752508509604786e+07  2.4752563229057126e+07  2.4752536359882336e+07  2.4752620757266156e+07  2.4752362947320953e+07  2.4751972815714516e+07  2.4752476388414498e+07  2.4752035426116690e+07  2.4751831900658745e+07  2.4752609201122295e+07  2.4751924309235562e+07  2.4752582040500157e+07  2.4751873660287987e+07  2.4752147308848493e+07  2.4752138451814950e+07  2.4752061091853593e+07  2.4752197138806984e+07  2.4752111656675342e+07  2.4752235757541459e+07  2.4752151510099489e+07  2.4752265350883078e+07  2.4752340706942324e+07  2.4752320118811831e+07  2.4752588916819334e+07  2.4751965481599588e+07  2.4751894294966880e+07  2.4751862229351420e+07  2.4752048808680762e+07  2.4752610238280870e+07  2.4751962448337946e+07  2.4752632008282334e+07  2.4752345398396757e+07  2.4752610388214149e+07  2.4752340157771543e+07  2.4752441710798591e+07  2.4752521553654443e+07  2.4752431534873646e+07  2.4752474359436311e+07  2.4751835351424254e+07  2.4752098383182250e+07  2.4752377106465075e+07  2.4752618231527127e+07  2.4752015146089688e+07  2.4751983712543655e+07  2.4751860652122200e+07  2.4752378307730898e+07  2.4752611828446373e+07  2.4751924088263061e+07  2.4752662441535730e+07  2.4752266404421251e+07  2.4752267253772590e+07  2.4752226956957817e+07  2.4752506106499143e+07  2.4752562391954936e+07  2.4752520790608399e+07  2.4752556185809754e+07  2.4751988508358657e+07  2.4751961773278974e+07  2.4752010974899352e+07  2.4752324872566964e+07  2.4752317188635562e+07  2.4752131966018420e+07  2.4752370960330162e+07  2.4751887848476999e+07  2.4752650908892136e+07  2.4751966193766963e+07  2.4752176074804958e+07  2.4752647146765314e+07  2.4764340965601139e+07  2.4752247608229030e+07  2.4752385929127850e+07  2.4752320847183555e+07  2.4752459019973893e+07  2.4752401114688180e+07  2.4752471798651364e+07  2.4752524338072028e+07  2.4752334758794121e+07  2.4752085272260904e+07  2.4752279855748173e+07  2.4752270450095639e+07  2.4752310933000959e+07  2.4752652095823292e+07  2.4752067006087288e+07  2.4752326094781537e+07  2.4751844124025803e+07  2.4752357692304272e+07  2.4752163842522420e+07  2.4752605075552322e+07  2.4752338567304183e+07  2.4752036911965661e+07  2.4752148593698595e+07  2.4752094512671188e+07  2.4752768022112828e+07  2.4752115353543106e+07  2.4752352460984077e+07  2.4752377107378356e+07  2.4752510471069019e+07  2.4752283444238473e+07  2.4752297910181161e+07  2.4752291917675864e+07  2.4752043969601817e+07  2.4752048472051349e+07  2.4752068121943638e+07  2.4752324972740140e+07  2.4752857878104832e+07  2.4751892730087087e+07  2.4752815087564576e+07  2.4751878056193177e+07  2.4752338093345158e+07  2.4752055604335003e+07  2.4752596196688350e+07  2.4752068259886779e+07  2.4751978251584202e+07  2.4752072649608701e+07  2.4752616586938228e+07  2.4752620332558550e+07  2.4752619058055338e+07  2.4752294935684700e+07  2.4752377592448074e+07  2.4752523603881393e+07  2.4752434866980448e+07  2.4752621291352458e+07  2.4752612412892152e+07  2.4752604399109513e+07  2.4752330879105426e+07  2.4752053555359393e+07  2.4752443398254771e+07  2.4752614335703585e+07  2.4752617683240108e+07  2.4752405407950874e+07  2.4752168866867181e+07  2.4752163278524768e+07  2.4752104473583777e+07  2.4752717426763002e+07  2.4752615569072343e+07  2.4752594624152757e+07  2.4752149624487553e+07  2.4752584120791763e+07  2.4752488006262723e+07  2.4753846933125328e+07  2.4752699812818330e+07  2.4751939679903403e+07  2.4752630424593616e+07  2.4752179513606623e+07  2.4751982928657997e+07  2.4752078435348853e+07  2.4752584736787438e+07  2.4751806930910684e+07  2.4751820181478303e+07  2.4752594231950123e+07  2.4752018420363445e+07  2.4752056279363465e+07  2.4752434103729203e+07  2.4751902776202653e+07  2.4752432161464754e+07  2.4752069264325071e+07  2.4752616212775260e+07  2.4752606135248832e+07  2.4752380467684064e+07  2.4751845988562874e+07  2.4752574345885396e+07  2.4752565861571599e+07  2.4752617466013677e+07  2.4752238161505356e+07  2.4752516343638696e+07  2.4751818187702641e+07  2.4751859896386329e+07  2.4752012240214754e+07  2.4752700538703423e+07  2.4752567024587590e+07  2.4752453421962488e+07  2.4752456433455285e+07  2.4752480346796434e+07  2.4752552664569292e+07  2.4752550374597073e+07  2.4752572731361944e+07  2.4752412982152350e+07  2.4752228905300044e+07  2.4752477363987811e+07  2.4752031693452030e+07  2.4752576537899312e+07  2.4752471445624765e+07  2.4752352114031382e+07  2.4752612418192357e+07  2.4752616376039214e+07  2.4752260388249237e+07  2.4752225480538022e+07  2.4752522647911828e+07  2.4752491635460399e+07  2.4752310330366429e+07  2.4752425416801535e+07  2.4752373520582639e+07  2.4752103791959368e+07  2.4752078590327710e+07  2.4752021013582379e+07  2.4752257514847692e+07  2.4751971967536908e+07  2.4752080570138320e+07  2.4752049190376945e+07  2.4751874999244083e+07  2.4752087284022134e+07  2.4752337450705189e+07  2.4752273529203124e+07  2.4752619628375337e+07  2.4752611554969028e+07  2.4752494065092333e+07  2.4752147671250373e+07  2.4752493605021834e+07  2.4752031222145692e+07  2.4752009185186107e+07  2.4752312408083793e+07  2.4751840644884605e+07  2.4752682184319649e+07  2.4847821585747778e+07  2.4752343409432594e+07  2.4751908230167743e+07  2.4752190954168189e+07  2.4752061097967394e+07  2.4752643412096646e+07  2.4751935246772699e+07  2.4752018020253323e+07  2.4752103695138521e+07  2.4752113612266440e+07  2.4752246681867804e+07  2.4752537915154915e+07  2.4752587806156203e+07  2.4752367027385056e+07  2.4752387556947492e+07  2.4752080274575014e+07  2.4752452163686614e+07  2.4752628866249606e+07  2.4752615983027279e+07  2.4752543642302446e+07  2.4752179950372029e+07  2.4752598095431264e+07  2.4752272583603233e+07  2.4752198975190561e+07  2.4752506036136162e+07  2.4752141550584119e+07  2.4752136445250019e+07  2.4788097863740698e+07  2.4752329655543245e+07  2.4752406955469403e+07  2.4752617761917733e+07  2.4752575180314653e+07  2.4752239922771573e+07  2.4752213760146804e+07  2.4752417067084737e+07  2.4807339388571046e+07  2.4752595462721098e+07  2.4752618906565081e+07  2.4752234179886907e+07  2.4752602891401928e+07  2.4752015884553503e+07  2.4752598121342704e+07  2.4752255279811844e+07  2.4752292369312663e+07  2.4752338109116483e+07  2.4751902694910727e+07  2.4751928530773178e+07  2.4752173113070272e+07  2.4752309915266480e+07  2.4752315751941696e+07  2.4751972984066285e+07  2.4752095672197100e+07  2.4752496917250380e+07  2.4752507097309165e+07  2.4752030424152546e+07  2.4752135048547450e+07  2.4752219672462452e+07  2.4751845236524262e+07  2.4803960130592987e+07  2.4752424242557727e+07  2.4752522329596836e+07  2.4752040939193182e+07  2.4752351298088279e+07  2.4752545462753613e+07  2.4751999449706297e+07  2.4752302383072924e+07  2.4752901412784927e+07  2.4751946922110703e+07  2.4752208635157470e+07  2.4752357971431289e+07  2.4752319811353996e+07  2.4751902523105361e+07  2.4752617886086069e+07  2.4752599162249994e+07  2.4817713227072094e+07  2.4752584999989603e+07  2.4752357466405425e+07  2.4751820908378374e+07  2.4752375023580942e+07  2.4752165447758380e+07  2.4752216363966085e+07  2.4752073565599624e+07  2.4752119033924635e+07  2.4752142187315799e+07  2.4752387186753687e+07  2.4751883227612209e+07  2.4751871543155711e+07  2.4751851564672552e+07  2.4752229736667085e+07  2.4752533760149918e+07  2.4752322861855809e+07  2.4752381501368903e+07  2.4752035788221501e+07  2.4752185968797531e+07  2.4752493978932623e+07  2.4752539897361819e+07  2.4751984997219671e+07  2.4752286037720196e+07  2.4752624158451840e+07  2.4752612362614356e+07  2.4752305914972425e+07  2.4752353027364466e+07  2.4752297877715971e+07  2.4752711754001755e+07  2.4752451363370433e+07  2.4752441428837210e+07  2.4752222504848044e+07  2.4751899365114860e+07  2.4752655800702214e+07  2.4751923206278246e+07  2.4752408377160497e+07  2.4752168869147822e+07  2.4752189052437346e+07  2.4752613404165234e+07  2.4752610546566669e+07  2.4752050418647572e+07  2.4752167927866697e+07  2.4752620895806096e+07  2.4751848482985273e+07  2.4752020544423554e+07  2.4752619583303969e+07  2.4752619168871835e+07  2.4752180629461396e+07  2.4752330103851665e+07  2.4752331759510957e+07  2.4752131054860912e+07  2.4751808337976165e+07  2.4752522144134209e+07  2.4752556698404621e+07  2.4752300727207649e+07  2.4752647876916602e+07  2.4752218063705739e+07  2.4752539799683623e+07  2.4752364379957598e+07  2.4752282984018967e+07  2.4752533347253375e+07  2.4752554677601542e+07  2.4752298409448247e+07  2.4751987913033456e+07  2.4752624618857704e+07  2.4752039479391810e+07  2.4752044588596549e+07  2.4752047502331547e+07  2.4752055792640481e+07  2.4752205928007357e+07  2.4752217677643862e+07  2.4752242231790416e+07  2.4752021396561291e+07  2.4751860985392466e+07  2.4752208135208376e+07  2.4752233082142718e+07  2.4752080429746959e+07  2.4752621780465342e+07  2.4752440482875247e+07  2.4751871973436575e+07  2.4751917888928760e+07  2.4752140325016499e+07  2.4752015403959211e+07  2.4751948445554446e+07  2.4752385981651168e+07  2.4752365618929178e+07  2.4751935460189775e+07  2.4752142226692516e+07  2.4752175065975621e+07  2.4752435236172508e+07  2.4824184198687576e+07  2.4752804522476491e+07  2.4752503814681739e+07  2.4752039237819344e+07  2.4752302886119634e+07  2.4752304323583513e+07  2.4752273758281197e+07  2.4752047953532416e+07  2.4752090506981004e+07  2.4751824092760231e+07  2.4752771857953809e+07  2.4752658708738316e+07  2.4752405202836554e+07  2.4752394434292041e+07  2.4752425092229936e+07  2.4751954972449046e+07  2.4751928996642102e+07  2.4751973751287732e+07  2.4752581793207228e+07  2.4752577262823414e+07  2.4752376563618973e+07  2.4752552632982623e+07  2.4752569865250211e+07  2.4752425265007500e+07  2.4752515461554591e+07  2.4752610436756365e+07  2.4752108336623799e+07  2.4752159968892477e+07  2.4752127618561659e+07  2.4752354558197048e+07  2.4752621985713374e+07  2.4752290595316969e+07  2.4751981013362885e+07  2.4752290378075134e+07  2.4752613994542819e+07  2.4752154527647097e+07  2.4752621146932732e+07  2.4752323551028710e+07  2.4752068436913952e+07  2.4752603888236351e+07  2.4752263547818527e+07  2.4752504149537936e+07  2.4752617595287744e+07  2.4752610941781420e+07  2.4752616198154014e+07  2.4752351529308774e+07  2.4752453075709824e+07  2.4752578433568105e+07  2.4752007669976607e+07  2.4752399547701173e+07  2.4752390758194610e+07  2.4752279372228958e+07  2.4751823947493598e+07  2.4751841370047480e+07  2.4751828323365014e+07  2.4752046859130643e+07  2.4752406702096559e+07  2.4752201227115229e+07  2.4752202890121795e+07  2.4752463856336117e+07  2.4752264578972735e+07  2.4751998045967791e+07  2.4751982749881212e+07  2.4752055645940579e+07  2.4752168805272717e+07  2.4752073675030869e+07  2.4751933864077665e+07  2.4751904274603881e+07  2.4752322496015675e+07  2.4751994059462760e+07  2.4751949549707226e+07  2.4751935230923336e+07  2.4752670931125630e+07  2.4752423987891652e+07  2.4751957234374736e+07  2.4752616335163072e+07  2.4751989747580934e+07  2.4752023400157414e+07  2.4751971271682523e+07  2.4752484433257725e+07  2.4752993563088119e+07  2.4751812083278794e+07  2.4751811377118465e+07  2.4752452712264411e+07  2.4751829115128845e+07  2.4752040013589382e+07  2.4752520408534177e+07  2.4760262449786592e+07  2.4752537584658712e+07  2.4752093614596963e+07  2.4751910163981210e+07  2.4753448069046818e+07  2.4752443660686400e+07  2.4751909753248800e+07  2.4752667292024858e+07  2.4752393112793490e+07  2.4751812852012221e+07  2.4752600359739210e+07  2.4752373845987592e+07  2.4752113126891021e+07  2.4752052747992326e+07  2.4751961576305985e+07  2.4752593384963017e+07  2.4751881900693785e+07  2.4752593474740084e+07  2.4752432345894743e+07  2.4752719945802435e+07  2.4752112256224278e+07  2.4752146057364732e+07  2.4752643177063305e+07  2.4752148937900938e+07  2.4752579699339110e+07  2.4752002740026463e+07  2.4752353130056489e+07  2.4752109214569163e+07  2.4752074377919693e+07  2.4752288953229751e+07  2.4752110939661749e+07  2.4751881019902516e+07  2.4752460181888986e+07  2.4752309757675551e+07  2.4752239264489152e+07  2.4752528576403819e+07  2.4751897999073189e+07  2.4752233231857929e+07  2.4752045504062846e+07  2.4752005720445715e+07  2.4752362199545480e+07  2.4752590529201094e+07  2.4752586193141565e+07  2.4752062665832885e+07  2.4752086780383456e+07  2.4752100602962237e+07  2.4752474953287240e+07  2.4752460434467338e+07  2.4821854099653386e+07  2.4752724920814175e+07  2.4752483823173333e+07  2.4752459814961676e+07  2.4752515973535847e+07  2.4752559802684486e+07  2.4752542718613807e+07  2.4752080686978530e+07  2.4752461462874122e+07  2.4752247892090008e+07  2.4752029414509751e+07  2.4752036839318212e+07  2.4752041352538753e+07  2.4752491966456976e+07  2.4752502115141004e+07  2.4752533507260881e+07  2.4752644600977864e+07  2.4751871264028046e+07  2.4751867595599327e+07  2.4752152286410157e+07  2.4752580114081621e+07  2.4752586151445962e+07  2.4752315335164554e+07  2.4752042070127402e+07  2.4752118714756161e+07  2.4752170822395775e+07  2.4752621758862559e+07  2.4751911877354752e+07  2.4752536998825781e+07  2.4752616579573032e+07  2.4752617346481405e+07  2.4752590693625700e+07  2.4752597506790280e+07  2.4752411886729084e+07  2.4752614097583283e+07  2.4752287470486283e+07  2.4751820844266959e+07  2.4752349123650305e+07  2.4752340456067104e+07  2.4752310962881830e+07  2.4752072938724525e+07  2.4751862198293325e+07  2.4752326572752625e+07  2.4752319553803742e+07  2.4752315028583072e+07  2.4752144929122567e+07  2.4752119042152960e+07  2.4752123032284886e+07  2.4752138358505677e+07  2.4752621349810794e+07  2.4752612236218862e+07  2.4752440021187250e+07  2.4752189986909542e+07  2.4751951649776060e+07  2.4752615723869421e+07  2.4751888104720250e+07  2.4751920271450553e+07  2.4752507791221552e+07  2.4752523800833177e+07  2.4752573870866545e+07  2.4752551138705127e+07  2.4752565791098088e+07  2.4752039248578187e+07  2.4752083490225755e+07  2.4752079532808222e+07  2.4752258594868973e+07  2.4752344013169408e+07  2.4751805866862219e+07  2.4752549433541570e+07  2.4752604062653396e+07  2.4751840960620906e+07  2.4751983488337912e+07  2.4752030471787792e+07  2.4752428941952087e+07  2.4752492167310290e+07  2.4752522355860528e+07  2.4752572360336773e+07  2.4751937151588641e+07  2.4752619061269429e+07  2.4752339132253412e+07  2.4751886124089774e+07  2.4752045161587846e+07  2.4752353393776607e+07  2.4752056097002022e+07  2.4756720896428596e+07  2.4752181914988507e+07  2.4752361815421589e+07  2.4752130986145359e+07  2.4752301848612059e+07  2.4751915361371674e+07  2.4752088706259999e+07  2.4751821352656629e+07  2.4752635638391964e+07  2.4752093429368254e+07  2.4752292922283303e+07  2.4752313529025733e+07  2.4752336960639331e+07  2.4752598635861944e+07  2.4752202957602471e+07  2.4752575816194896e+07  2.4752186958336085e+07  2.4752615518433362e+07  2.4752607456683859e+07  2.4752606942620173e+07  2.4752562037513074e+07  2.4751950426776271e+07  2.4752371007327229e+07  2.4752259669176314e+07  2.4752231817995176e+07  2.4751894088910881e+07  2.4752149912929140e+07  2.4752048804101057e+07  2.4751949884741742e+07  2.4751938