<?xml version="1.0"?>
<VTKFile type="UnstructuredGrid"  version="0.1"  >
<UnstructuredGrid>
<Piece  NumberOfPoints="3002" NumberOfCells="5870">
<Points>
<DataArray  type="Float64"  NumberOfComponents="3"  format="ascii">323455.6100285493 6048753.88242996 0  323455.6100285493 5954782.59950515 0  405920.1480513444 5954782.59950515 0  405920.1480513444 6048753.88242996 0  405920.1480513444 6001768.240967555 0  323455.6100285493 6001768.240967555 0  364687.8790399469 5954782.59950515 0  364687.8790399469 6048753.88242996 0  364687.8790399469 5996367.117560402 0  323455.6100285493 6025261.061698757 0  382226.6271443229 6022560.499995181 0  405920.1480513444 5978275.420236353 0  323455.6100285493 5978275.420236353 0  353897.8957397301 6022560.499995181 0  344071.7445342481 5954782.59950515 0  385304.0135456456 5954782.59950515 0  405920.1480513444 6025261.061698757 0  354379.8117870975 5975574.858532775 0  381582.8168806895 5978840.396198289 0  384950.2598624413 6001768.240967555 0  344643.0480768835 6003429.02033719 0  344071.7445342481 6048753.88242996 0  385304.0135456456 6048753.88242996 0  339717.0321562298 5986078.187627405 0  337515.036058786 5969821.016310448 0  368062.2614420265 6013076.224998265 0  368062.2614420265 6032044.774992097 0  393987.6142659165 5988729.699941677 0  405920.1480513444 6013514.651333156 0  392856.2821527076 6034589.119828064 0  393514.9611654527 5968369.338068204 0  339399.8087404341 6032061.482581838 0  323455.6100285493 6013514.651333156 0  374995.9462927963 5965504.865595459 0  354379.8117870975 6037976.901948514 0  338123.9088969378 6017031.529131207 0  367397.3120126425 5982072.559192053 0  351882.5752379905 5991998.990225234 0  376945.425450199 5991232.708824487 0  392265.0061656896 6013300.936254065 0  357029.7426706699 6006608.947964352 0  380093.6207558212 6036880.127749795 0  323455.6100285493 5966529.009870751 0  405920.1480513444 6037007.472064359 0  405920.1480513444 5966529.009870751 0  323455.6100285493 6037007.472064359 0  333763.6772813987 6048753.88242996 0  405920.1480513444 5990021.830601954 0  323455.6100285493 5990021.830601954 0  362879.3643765316 5966837.319094267 0  348367.6438548031 5965604.161682394 0  334493.1989038612 5996935.948935225 0  395068.5043068817 6023875.372615605 0  348216.0324377587 6013504.844950221 0  379305.9090074943 6011603.390019651 0  372523.5158233726 6003480.000732267 0  395435.2039568929 5999384.346358113 0  395612.080798495 5954782.59950515 0  333763.6772813987 5954782.59950515 0  395612.080798495 6048753.88242996 0  374995.9462927963 6048753.88242996 0  374995.9462927963 5954782.59950515 0  354379.8117870975 6048753.88242996 0  354379.8117870975 5954782.59950515 0  335074.5981535012 6007206.680367459 0  391925.2695590468 5978591.908877409 0  371969.1707190623 6022560.499995181 0  383872.162544519 5969415.106147043 0  358038.7139835292 5984533.09712744 0  369699.869182786 5973102.2359358 0  369841.9126663716 6041099.453006387 0  343176.7440329155 5994428.220622956 0  362933.5332293962 6024385.235173292 0  330640.1760208776 5984148.625419154 0  348684.7494355051 5983110.856817525 0  399094.9690929834 6007537.420809742 0  345447.6324516311 5974162.84917082 0  332859.7749513451 6039150.972778062 0  344517.044630671 6024057.945416138 0  332973.1214415312 6025037.914505113 0  341428.0126373461 6040493.820728126 0  385874.264691618 5992757.40885039 0  350337.3662538711 6030387.535304286 0  359887.2373602368 6016186.250094838 0  377097.8989316926 6029115.217702097 0  338917.7109078235 5961484.016839475 0  329495.5261590715 5972402.215053552 0  336644.7280634616 5978216.610794215 0  330688.6715098422 5962480.256438018 0  359899.8039476132 6031963.415584587 0  399746.255941904 6030426.523907755 0  385511.6875144855 6030368.508996127 0  387377.735783329 6040763.821024337 0  398832.192399829 5974431.100387635 0  387992.9498994246 5962432.032572681 0  405920.1480513444 5984148.625419153 0  364925.7641745284 6005782.953640081 0  361769.877068089 6041226.651684469 0  398452.9199001931 6040850.732439541 0  398946.6205243983 5962252.502309519 0  362305.5577564609 5975984.89789681 0  356822.8065216601 5998470.186307689 0  386900.7115926162 5984820.732438302 0  329528.0119279922 6032067.230024892 0  331139.6939744562 6013813.572928222 0  398457.5876798834 5982541.698799337 0  405920.1480513444 6019387.856515957 0  398685.5166750694 6017257.578706384 0  348587.9424884976 6042755.309150081 0  369841.9126663716 5960143.732550304 0  380149.979919221 5960143.732550304 0  359533.8454135222 5960172.384722514 0  377147.8814772839 5972649.581024994 0  341756.3455763521 6010124.092444684 0  355615.8176864882 5966311.193813809 0  369144.4338274571 5989807.770003954 0  375185.9047422862 5983510.422041401 0  323455.6100285493 6007641.446150355 0  391856.7960121195 6005888.565703365 0  371978.0245217044 5996361.134308098 0  405920.1480513444 5995895.035784755 0  378877.1880032702 5998073.745937059 0  359056.6617417652 5991643.489540118 0  399278.8743430426 5993436.466134224 0  386116.8775939071 6009922.097099247 0  323455.6100285493 6019387.856515957 0  388994.7833819839 6019826.789191471 0  348897.6207366391 5998116.079250046 0  345456.3301153719 6035064.814295612 0  323455.6100285493 6042880.677247159 0  334124.3013408988 5990072.953472659 0  377097.8989316926 6018059.782440464 0  323455.6100285493 5995895.035784755 0  342871.8474798963 5980154.238874755 0  373596.9793292385 6035659.183886081 0  380149.979919221 6048753.88242996 0  376327.9292813152 6042294.581731233 0  329163.3548105369 6004704.843558955 0  350303.9432136903 6007093.032074522 0  383982.6552804571 6015912.664375832 0  345515.490569988 5988567.439252969 0  379019.812877927 6004678.052169549 0  365541.9137639466 6018750.691894444 0  349225.7781606728 5954782.59950515 0  352493.3399767278 5960815.406895458 0  363683.8130458911 5986976.225872464 0  386666.791301207 5975084.583584332 0  368937.6553346639 5966171.092344863 0  400003.9882214358 5968352.273777306 0  328776.0063842635 5992958.433193355 0  339958.4428758043 5999572.344589042 0  354577.7732363954 6012555.454074449 0  328609.6436549741 6048753.88242996 0  382053.0280278458 5988228.496807038 0  330708.6817934912 5978212.973348036 0  372084.7734679543 5978495.086505585 0  358568.2738174705 5971419.415228934 0  328931.2672829705 5998832.905089681 0  323455.6100285493 6031134.266881558 0  405920.1480513444 5972402.215053552 0  405920.1480513444 6031134.266881558 0  323455.6100285493 5972402.215053552 0  405920.1480513444 5960655.804687951 0  323455.6100285493 5960655.804687951 0  405920.1480513444 6007641.446150355 0  323455.6100285493 5984148.625419153 0  405920.1480513444 6042880.677247159 0  346648.7613474604 5960023.05127712 0  342415.3891593561 5966358.988213831 0  350507.6510228226 5971111.740321856 0  391773.9667214506 5994456.117700323 0  338875.8905424621 6026088.827345025 0  361429.1735454847 6010511.262533597 0  389395.7028803263 6025805.543023561 0  392895.6464692951 6043315.288173481 0  332846.8296575367 6019296.633131165 0  373337.4404588729 6009693.515402478 0  336544.3064612215 6043648.151399015 0  348610.2411382072 6019567.839754772 0  381943.4597763228 6042183.394750732 0  355630.0631288611 6028071.82801846 0  363941.5238882306 6035967.852698964 0  328179.67203552 6022271.326978176 0  401066.2857736665 5998807.415073814 0  344387.1099621175 6029612.545574771 0  393435.2235156003 5960233.556458537 0  400735.9970493424 6022675.638064924 0  393708.5772019727 6029179.837160029 0  400609.0696943338 5987857.851798974 0  361753.6614662939 6001152.171757337 0  400766.1144249197 6048753.88242996 0  353363.0524357285 6002630.165620538 0  343248.328463803 6018790.640008039 0  356419.8105951758 6043365.392189237 0  390234.385899412 6000759.497967276 0  368336.1168551637 6000220.532318851 0  328609.6436549741 5954782.59950515 0  387520.8298169724 6035372.992507171 0  400588.0280660195 6035823.299583429 0  329021.6598427091 6043194.252697862 0  393371.710206733 5983576.325812268 0  393638.9721728675 5973623.513063556 0  371727.9212466564 6017113.044457142 0  364687.2762977295 5959941.212693035 0  374995.9462927962 5960346.83186599 0  369841.9126663716 5954782.59950515 0  400766.1144249197 5954782.59950515 0  338917.7109078234 5954782.59950515 0  369841.9126663716 6048753.88242996 0  359533.8454135222 5954782.59950515 0  390458.0471720704 6048753.88242996 0  338917.7109078234 6048753.88242996 0  390458.0471720704 5954782.59950515 0  359533.8454135222 6048753.88242996 0  380149.979919221 5954782.59950515 0  349225.7781606728 6048753.88242996 0  339867.4956514095 6005339.817053361 0  333737.9460226952 6002130.523287664 0  336955.8140048417 6012008.440073739 0  377097.8989316926 6023232.32559834 0  371748.9790486701 6028016.629988787 0  338146.5171983215 5993298.164761053 0  355016.8390227688 6017610.913088997 0  393953.1528190996 6018968.416019509 0  335185.8133477239 5965142.63403323 0  328616.6041642396 5967263.80307608 0  380314.9487662361 5965460.362415641 0  354622.8993466098 6032976.142863722 0  328521.4725131759 6027215.026914048 0  334465.0783479523 6034070.534389696 0  328123.6212682287 6009699.206425843 0  381889.5169855529 5973936.741901617 0  359122.3484437474 6036790.002992895 0  386341.6533148278 5979963.279841923 0  400798.2159679119 6012477.871311778 0  388538.3765260249 5967461.292146791 0  340833.8784183678 5975728.708105717 0  355307.6239213505 5988552.151815021 0  362181.4274823388 5981261.937800813 0  353784.0322742948 5981044.538811012 0  358045.1698423899 5978741.391518688 0  328423.7350325213 6036912.015930048 0  366897.6876966125 6027277.723668203 0  347355.1745641421 5978532.307510624 0  376820.5060332146 5979033.270735624 0  349378.1778589479 6024378.632814493 0  327189.2282939323 6016451.253924556 0  338433.8773236172 6036753.902881841 0  350141.9760340559 5987605.90026687 0  363794.7083927878 5991713.491814731 0  350325.1285660182 6035273.515460094 0  382355.9358007369 5983507.499638396 0  327107.0747437811 59811
[...]
<PointData  Scalars="f_71083-0"> 
<DataArray  type="Float64"  Name="f_71083-0"  format="ascii">2.4629156513626747e+07  2.4641005117892660e+07  2.4664785276294176e+07  2.4644968981106162e+07  2.4676920665438730e+07  2.4644278646762382e+07  2.4659724966183051e+07  2.4641177838252369e+07  2.4736400107609626e+07  2.4635058711625006e+07  2.4664854934543371e+07  2.4673646139650073e+07  2.4643897247357622e+07  2.4653788095027346e+07  2.4647298386826396e+07  2.4665288717484660e+07  2.4656367696985953e+07  2.4663736526451070e+07  2.4686208385593385e+07  2.4702681150736928e+07  2.4660094785761032e+07  2.4633332263698988e+07  2.4644852726368271e+07  2.4653116385266561e+07  2.4646264714833718e+07  2.4689574866550665e+07  2.4650831778081797e+07  2.4685714544735290e+07  2.4667655245401990e+07  2.4649916939504988e+07  2.4669572367740270e+07  2.4635973687497139e+07  2.4640335096655142e+07  2.4668084300595883e+07  2.4640172889389683e+07  2.4644208631712612e+07  2.4690882786778234e+07  2.4675319854611780e+07  2.4771662401128866e+07  2.4673299794654008e+07  2.4686463629523404e+07  2.4648587334735125e+07  2.4641892859267067e+07  2.4647998740420777e+07  2.4667381108734835e+07  2.4630772606709220e+07  2.4630285437504549e+07  2.4678825055582322e+07  2.4645297251239836e+07  2.4663428648784623e+07  2.4651906299700953e+07  2.4649325005840842e+07  2.4659071921730015e+07  2.4657930309837937e+07  2.4689859334775865e+07  2.4736741705083672e+07  2.4684236046935361e+07  2.4665097551946580e+07  2.4642689819796182e+07  2.4645017807012036e+07  2.4643748981561914e+07  2.4663827282082662e+07  2.4637364602693453e+07  2.4653609995407026e+07  2.4647143620833021e+07  2.4678763272060901e+07  2.4665924859327186e+07  2.4672199041442648e+07  2.4680433208283875e+07  2.4674842194197807e+07  2.4644429258487996e+07  2.4659275210551813e+07  2.4658681073847868e+07  2.4646312886614874e+07  2.4662832517058074e+07  2.4674970444573175e+07  2.4653528651635598e+07  2.4631312044891864e+07  2.4644028597948536e+07  2.4636874805850241e+07  2.4633536412709605e+07  2.4705811471016049e+07  2.4643036136605673e+07  2.4671392965840716e+07  2.4655999991191551e+07  2.4645172652849320e+07  2.4643625661611591e+07  2.4648195395627674e+07  2.4642301925745003e+07  2.4647358754296307e+07  2.4652394176544093e+07  2.4654121250103895e+07  2.4646638548895504e+07  2.4672330413256258e+07  2.4667014365884412e+07  2.4676800148295999e+07  2.4730259475328874e+07  2.4641780494821250e+07  2.4646439030187510e+07  2.4666120483279821e+07  2.4673169011879742e+07  2.4693592256328002e+07  2.4691949646698050e+07  2.4632872364636771e+07  2.4641835994312320e+07  2.4677956871560127e+07  2.4661885537551049e+07  2.4665154751982428e+07  2.4635784361641999e+07  2.4663130294947185e+07  2.4665848099726971e+07  2.4657657538784195e+07  2.4676468250906002e+07  2.4652169109289769e+07  2.4657721461511184e+07  2.4719867714951076e+07  2.4700733888672475e+07  2.4642573769586541e+07  2.4683364806069836e+07  2.4808144888461195e+07  2.4678993930972837e+07  2.4752854483750388e+07  2.4694979433402404e+07  2.4681638665799346e+07  2.4685050456705868e+07  2.4637713341793310e+07  2.4666206101084024e+07  2.4669989069519144e+07  2.4637325328572571e+07  2.4629566549522631e+07  2.4649029511537105e+07  2.4675110500372682e+07  2.4645185298399769e+07  2.4654061191257935e+07  2.4648778803812347e+07  2.4644457239099424e+07  2.4645214231266629e+07  2.4644610969726130e+07  2.4668325363371212e+07  2.4675686507178921e+07  2.4661317859645296e+07  2.4711099713128068e+07  2.4671476404145915e+07  2.4650347629147604e+07  2.4653207122143447e+07  2.4697451214068525e+07  2.4677731588626333e+07  2.4666432881559346e+07  2.4668549860496964e+07  2.4646276921333846e+07  2.4654496404167667e+07  2.4669742051059872e+07  2.4629451631375007e+07  2.4709036683357228e+07  2.4645213432728112e+07  2.4686099270725448e+07  2.4664053020502999e+07  2.4645868641156070e+07  2.4632674576667614e+07  2.4670259495949686e+07  2.4651603048333686e+07  2.4642858682179287e+07  2.4665468626839094e+07  2.4641252057629876e+07  2.4672931465380251e+07  2.4644826080309752e+07  2.4645744800614621e+07  2.4649231376665141e+07  2.4648129278395947e+07  2.4656353653869875e+07  2.4691310802726809e+07  2.4638986281427596e+07  2.4688755982392602e+07  2.4658389058541346e+07  2.4645755776402198e+07  2.4639807588799562e+07  2.4702269757821042e+07  2.4631324969617814e+07  2.4651855657633163e+07  2.4645860265646584e+07  2.4648710967608947e+07  2.4645733324853763e+07  2.4636858673062693e+07  2.4679519129440457e+07  2.4639925942747410e+07  2.4665911716692910e+07  2.4659119440668501e+07  2.4654101109114259e+07  2.4679578231434748e+07  2.4726802250724025e+07  2.4645004710456278e+07  2.4680084581247713e+07  2.4647224914689053e+07  2.4638918963840939e+07  2.4691609216393080e+07  2.4826663107366022e+07  2.4641438376252964e+07  2.4649679554235976e+07  2.4648713414780445e+07  2.4629876072763842e+07  2.4682462785032801e+07  2.4673356878139045e+07  2.4678309446439199e+07  2.4660610811203938e+07  2.4664953479797047e+07  2.4662115920354899e+07  2.4664892413473379e+07  2.4644676927835010e+07  2.4642643237773445e+07  2.4656816389671005e+07  2.4645018065263044e+07  2.4631613375793844e+07  2.4665292559530716e+07  2.4639365173390724e+07  2.4664858710027918e+07  2.4635286900511909e+07  2.4652539080464266e+07  2.4647848510720432e+07  2.4646302879669495e+07  2.4664807169117436e+07  2.4656852724768341e+07  2.4652786968741402e+07  2.4662094492387678e+07  2.4665024039077219e+07  2.4644132717851158e+07  2.4642511911898978e+07  2.4668844687456526e+07  2.4643563778502006e+07  2.4634671885416798e+07  2.4633315050600525e+07  2.4642517214415561e+07  2.4677933947849523e+07  2.4643099679516871e+07  2.4684759619642105e+07  2.4669454836071856e+07  2.4669862674331114e+07  2.4650378288186029e+07  2.4680225510017514e+07  2.4681840079215873e+07  2.4668579998959612e+07  2.4671891880371809e+07  2.4631127915692322e+07  2.4656390458360344e+07  2.4657989891415235e+07  2.4688282645335421e+07  2.4647659817017630e+07  2.4639389533867531e+07  2.4633630501996595e+07  2.4668551504095189e+07  2.4711637871550694e+07  2.4639670633228783e+07  2.4695765683695514e+07  2.4644741995142367e+07  2.4649041069439758e+07  2.4645851103883475e+07  2.4719017658724945e+07  2.4670978427345045e+07  2.4669472018451780e+07  2.4680441623137392e+07  2.4643726229462232e+07  2.4642211727417070e+07  2.4646765476999328e+07  2.4644045130926237e+07  2.4645838732323878e+07  2.4660613172735661e+07  2.4686762924576886e+07  2.4634846594727784e+07  2.4702608286138821e+07  2.4640579216587886e+07  2.4659276068519201e+07  2.4693804449324850e+07  2.4749135900943708e+07  2.4661161307185236e+07  2.4651933831419103e+07  2.4666951523824707e+07  2.4676871155321334e+07  2.4676040625049841e+07  2.4680385796289500e+07  2.4697268286940642e+07  2.4657819766049188e+07  2.4651406803198598e+07  2.4656090307453088e+07  2.4668846507015795e+07  2.4681692986547604e+07  2.4704835781339068e+07  2.4647333285645891e+07  2.4673145342079926e+07  2.4632666341492053e+07  2.4649415464119274e+07  2.4663770538753293e+07  2.4675645006514899e+07  2.4670243051957980e+07  2.4645393195067436e+07  2.4657984877314083e+07  2.4652601252833001e+07  2.4717651244252745e+07  2.4652523550351098e+07  2.4643714791192185e+07  2.4646625534704890e+07  2.4691062620194592e+07  2.4647214861834921e+07  2.4650294715636875e+07  2.4643589041492835e+07  2.4650926413885836e+07  2.4645308351808872e+07  2.4646716109695289e+07  2.4641688757362586e+07  2.4753202599059563e+07  2.4636906984672122e+07  2.4706310465933550e+07  2.4635553094347350e+07  2.4642061604315761e+07  2.4648011951222386e+07  2.4667238254796490e+07  2.4650847296359506e+07  2.4643889691377610e+07  2.4654288465993568e+07  2.4667201618077870e+07  2.4666821303569134e+07  2.4665222655146066e+07  2.4665285556766037e+07  2.4680157038759939e+07  2.4706826624277052e+07  2.4694386806347057e+07  2.4665140375409264e+07  2.4674888167739391e+07  2.4665670477103643e+07  2.4641419149429768e+07  2.4645510883716911e+07  2.4659489611110501e+07  2.4672120574088760e+07  2.4670545896887630e+07  2.4658864922853358e+07  2.4655214081758264e+07  2.4655324397961289e+07  2.4650270933282875e+07  2.4715742844546087e+07  2.4673115882693931e+07  2.4665706251546573e+07  2.4660832329345264e+07  2.4699410125288047e+07  2.4703949661029022e+07  2.4741063453295883e+07  2.4744823632179439e+07  2.4640576841424935e+07  2.4684459248528011e+07  2.4659964825304125e+07  2.4642871401053596e+07  2.4652755287872683e+07  2.4671452427429624e+07  2.4629271550044462e+07  2.4630080778958917e+07  2.4681294909657735e+07  2.4643025742830496e+07  2.4644438444970042e+07  2.4686184775587291e+07  2.4637808564422585e+07  2.4673523877586063e+07  2.4648088147726540e+07  2.4678115064224381e+07  2.4681372516411584e+07  2.4647930804851670e+07  2.4631628629088487e+07  2.4713479869632792e+07  2.4685109818565506e+07  2.4670219644824494e+07  2.4661696345290881e+07  2.4663013143161796e+07  2.4630281237141117e+07  2.4634078217370570e+07  2.4644780841041397e+07  2.4716427382947255e+07  2.4679703512372952e+07  2.4654886104555834e+07  2.4656360985250898e+07  2.4659639879365280e+07  2.4665447261617247e+07  2.4663379180434249e+07  2.4664685690300066e+07  2.4679492807203509e+07  2.4671098165076073e+07  2.4661557841242220e+07  2.4645509556778714e+07  2.4666810305377875e+07  2.4667297839651678e+07  2.4646003016208068e+07  2.4667793710010666e+07  2.4704023614992131e+07  2.4668312272505525e+07  2.4662126781466953e+07  2.4661242018584225e+07  2.4658506738455418e+07  2.4642352010145314e+07  2.4655377422308873e+07  2.4689091590629727e+07  2.4649379302162550e+07  2.4644670569943476e+07  2.4648715336251177e+07  2.4652018767924171e+07  2.4643424735496111e+07  2.4652364223208662e+07  2.4651759759092569e+07  2.4635051253075123e+07  2.4651077612812940e+07  2.4679492072421242e+07  2.4671492263177808e+07  2.4676318270727400e+07  2.4682192612782668e+07  2.4688097168867633e+07  2.4659985552178871e+07  2.4680124148907598e+07  2.4647245297747295e+07  2.4645650838787030e+07  2.4680442203937907e+07  2.4632056508153282e+07  2.4700013782602325e+07  2.4819549130457293e+07  2.4643278097915754e+07  2.4638270480920065e+07  2.4667323152175076e+07  2.4647863232023504e+07  2.4694909805515420e+07  2.4640595707736086e+07  2.4644666626384623e+07  2.4649644052654974e+07  2.4650564019506920e+07  2.4645253689562328e+07  2.4679770023251120e+07  2.4682503854821604e+07  2.4670408966158807e+07  2.4672145409766752e+07  2.4648135960371222e+07  2.4690636718945093e+07  2.4687463882837664e+07  2.4695047293941658e+07  2.4669871221391551e+07  2.4647140781714793e+07  2.4677754989911519e+07  2.4674172043217294e+07  2.4665232384429317e+07  2.4701215565588132e+07  2.4660685812740125e+07  2.4649620852792896e+07  2.4774857314231187e+07  2.4643051677023530e+07  2.4662547990607582e+07  2.4675493840921391e+07  2.4675706639828723e+07  2.4647196240680136e+07  2.4649624886044696e+07  2.4650997884619784e+07  2.4798336414477222e+07  2.4686655697202481e+07  2.4668723528627999e+07  2.4669944350418441e+07  2.4669220883182690e+07  2.4640894932207573e+07  2.4674255243184920e+07  2.4662341216792461e+07  2.4679217616519827e+07  2.4648009226022858e+07  2.4637243707994867e+07  2.4639911728006281e+07  2.4650601918473039e+07  2.4642707191551819e+07  2.4653730691672631e+07  2.4642800649775714e+07  2.4655754217858244e+07  2.4665475242562667e+07  2.4685241575931527e+07  2.4646559824363884e+07  2.4656161171860084e+07  2.4663367523983829e+07  2.4631955389976207e+07  2.4781155080815557e+07  2.4653494906340457e+07  2.4666697845326710e+07  2.4649480318455935e+07  2.4668071259141676e+07  2.4682655998108678e+07  2.4644194770518292e+07  2.4669309056389041e+07  2.4725438859652206e+07  2.4640541855952788e+07  2.4652543266956359e+07  2.4654104465358175e+07  2.4650845092588853e+07  2.4636363136721626e+07  2.4668582604508303e+07  2.4693908004950602e+07  2.4806959601292927e+07  2.4678008607133549e+07  2.4658116014803179e+07  2.4630181131573547e+07  2.4672492217088606e+07  2.4656133278695222e+07  2.4669496908650219e+07  2.4643196100024492e+07  2.4644666960775062e+07  2.4644809212750539e+07  2.4682176320381448e+07  2.4633810125422165e+07  2.4633217992127582e+07  2.4632024002191510e+07  2.4645134227969896e+07  2.4682095720099971e+07  2.4675283715529785e+07  2.4678278470998790e+07  2.4641516364112787e+07  2.4662194278807163e+07  2.4659948994040698e+07  2.4674475410329744e+07  2.4640002645492077e+07  2.4677968892687559e+07  2.4682081610829480e+07  2.4674104056668628e+07  2.4656804453571092e+07  2.4662418158655383e+07  2.4660407637312703e+07  2.4714447591447439e+07  2.4700161487326570e+07  2.4695324355432890e+07  2.4663805873871226e+07  2.4637438889998108e+07  2.4710933487066161e+07  2.4639337003741790e+07  2.4651060327151150e+07  2.4645600403822485e+07  2.4645329219197292e+07  2.4665218887892466e+07  2.4665551670970540e+07  2.4645167949809466e+07  2.4664606597264804e+07  2.4665801890277810e+07  2.4632472707633290e+07  2.4644965007698651e+07  2.4668015770792130e+07  2.4667256860411044e+07  2.4661966656802636e+07  2.4641066108729213e+07  2.4641119208728626e+07  2.4652635607899092e+07  2.4629402050864354e+07  2.4686940077014744e+07  2.4690367368865270e+07  2.4676404446773853e+07  2.4696270055397891e+07  2.4659057526045054e+07  2.4698449871189527e+07  2.4645041428757653e+07  2.4663633591827635e+07  2.4664040937686820e+07  2.4667529899005610e+07  2.4667251201012496e+07  2.4645315993265375e+07  2.4680260136668853e+07  2.4645039687042627e+07  2.4645261941255372e+07  2.4646165776134543e+07  2.4646190943982340e+07  2.4645616121855702e+07  2.4647210527265202e+07  2.4669221379370563e+07  2.4647659950040281e+07  2.4634107167221352e+07  2.4657543770023119e+07  2.4656265707099330e+07  2.4654852512114327e+07  2.4690166516267776e+07  2.4675153126107622e+07  2.4635139643718157e+07  2.4638175035858642e+07  2.4652759425636910e+07  2.4646680016157709e+07  2.4641530313761972e+07  2.4650236984112583e+07  2.4646588942321289e+07  2.4638363621872533e+07  2.4655412308552671e+07  2.4657320210444771e+07  2.4652819470455613e+07  2.4791392928237259e+07  2.4717679913210969e+07  2.4669091473454166e+07  2.4645205069208775e+07  2.4644805963161066e+07  2.4646291565937653e+07  2.4645811320961706e+07  2.4644991492597871e+07  2.4643522802622952e+07  2.4630506847061090e+07  2.4709396719901852e+07  2.4722170514459200e+07  2.4653628843787141e+07  2.4655451073379163e+07  2.4659720821376320e+07  2.4637875782118432e+07  2.4636359445543446e+07  2.4644300593773309e+07  2.4687100494027793e+07  2.4679725317087539e+07  2.4683343455415763e+07  2.4679180422485061e+07  2.4688292562654193e+07  2.4691796998470068e+07  2.4701531021401230e+07  2.4673882586809374e+07  2.4646054139216248e+07  2.4647372390160643e+07  2.4645800380381294e+07  2.4647543612651363e+07  2.4664965123792253e+07  2.4664764983634159e+07  2.4639037098600719e+07  2.4643384528363831e+07  2.4671947633380532e+07  2.4653869117418040e+07  2.4666273398410760e+07  2.4641530980578993e+07  2.4646679902686041e+07  2.4675284817843117e+07  2.4644400575358599e+07  2.4678254140967835e+07  2.4665805404963508e+07  2.4666543431786060e+07  2.4665319583305970e+07  2.4673303853633482e+07  2.4662942616435818e+07  2.4673042722692411e+07  2.4644371834234241e+07  2.4648778563633028e+07  2.4647964482860569e+07  2.4644122985992927e+07  2.4630891678300411e+07  2.4632332352520868e+07  2.4631045666514631e+07  2.4647681155221719e+07  2.4667479068277974e+07  2.4657770389328402e+07  2.4658577124097910e+07  2.4674061070284866e+07  2.4665551295134902e+07  2.4646702373469990e+07  2.4645159503322989e+07  2.4652409574865200e+07  2.4652758770270139e+07  2.4652919131123852e+07  2.4640325501168337e+07  2.4637838717187636e+07  2.4647664082737409e+07  2.4641839639284864e+07  2.4638780856148735e+07  2.4637368417981781e+07  2.4699366517640892e+07  2.4674729567457881e+07  2.4638422956304099e+07  2.4691316768413007e+07  2.4645627620899707e+07  2.4648591385105912e+07  2.4643562583732821e+07  2.4677760405758221e+07  2.4722659041441228e+07  2.4629801768477879e+07  2.4629696660846408e+07  2.4685042390046973e+07  2.4631334086066235e+07  2.4646434863845382e+07  2.4703505628582984e+07  2.4737720915588684e+07  2.4726095603301283e+07  2.4648837517482258e+07  2.4636525362698983e+07  2.4729260330131575e+07  2.4679375063771050e+07  2.4635403863930680e+07  2.4730578988860317e+07  2.4649822516675174e+07  2.4629665257387433e+07  2.4666410651306406e+07  2.4645926184891872e+07  2.4651387383189462e+07  2.4651271370243497e+07  2.4641965317951873e+07  2.4671244968613662e+07  2.4635418291843191e+07  2.4705420532625273e+07  2.4665489004306439e+07  2.4741704775692586e+07  2.4656248940900978e+07  2.4645114623617634e+07  2.4698531061092898e+07  2.4655329926016901e+07  2.4678752423015542e+07  2.4644160052879136e+07  2.4669559025879391e+07  2.4650385627181470e+07  2.4647413229629654e+07  2.4670212314264879e+07  2.4656111622622259e+07  2.4634671404445272e+07  2.4678031029367018e+07  2.4679307178538155e+07  2.4671610121399812e+07  2.4700898703115843e+07  2.4635207370326731e+07  2.4660352468141723e+07  2.4649304983691502e+07  2.4645374776900265e+07  2.4684873032363702e+07  2.4665128825048290e+07  2.4665234195918959e+07  2.4647954523349416e+07  2.4649766849018633e+07  2.4651778713095665e+07  2.4656884287959944e+07  2.4655250599118732e+07  2.4793920873448081e+07  2.4714473472029448e+07  2.4690447627407376e+07  2.4694512157002222e+07  2.4688830246581502e+07  2.4695152638883788e+07  2.4687576747722771e+07  2.4654138553478122e+07  2.4660797035072617e+07  2.4673979648486774e+07  2.4645071679189201e+07  2.4650578702535503e+07  2.4647091135415006e+07  2.4677330738202654e+07  2.4675380011200298e+07  2.4677361662993725e+07  2.4690424010189585e+07  2.4634255641038749e+07  2.4633429343937438e+07  2.4661232235324621e+07  2.4668928871006142e+07  2.4667095105498411e+07  2.4644449809207723e+07  2.4642830775743570e+07  2.4658881205361605e+07  2.4664728324964289e+07  2.4664826290942475e+07  2.4638417007142119e+07  2.4662379849890392e+07  2.4671687061076865e+07  2.4673156739782766e+07  2.4677796732053984e+07  2.4669897850890875e+07  2.4673532427758764e+07  2.4670836858493846e+07  2.4672985142385352e+07  2.4630389638776474e+07  2.4644345677592929e+07  2.4645110038606998e+07  2.4666946476573039e+07  2.4650247375106391e+07  2.4634300110477597e+07  2.4642281449114639e+07  2.4641984986810930e+07  2.4643110386921231e+07  2.4658440003723413e+07  2.4655354986088064e+07  2.4655001993251275e+07  2.4661379886013638e+07  2.4680526240889926e+07  2.4680032941163652e+07  2.4654827875977214e+07  2.4664904091444142e+07  2.4641967214322086e+07  2.4684000022922266e+07  2.4634144907627817e+07  2.4638953352645595e+07  2.4659948814710304e+07  2.4662238167917240e+07  2.4665416002939563e+07  2.4664182495813966e+07  2.4666280169683624e+07  2.4645332869135778e+07  2.4648918870400921e+07  2.4646775545561370e+07  2.4655911014904957e+07  2.4642827348779667e+07  2.4629228693747509e+07  2.4663063917726751e+07  2.4665327999580614e+07  2.4632428472314660e+07  2.4643237996725839e+07  2.4644953451308005e+07  2.4651969455743209e+07  2.4658337327452917e+07  2.4661002041182272e+07  2.4664438740729004e+07  2.4640309099036124e+07  2.4664986154367808e+07  2.4641967442229565e+07  2.4636335614676472e+07  2.4645021480560951e+07  2.4643605677945454e+07  2.4646608034266595e+07  2.4741877816440478e+07  2.4665040775975816e+07  2.4677807380356152e+07  2.4652464302396376e+07  2.4643183141930491e+07  2.4635969780927230e+07  2.4649118771663561e+07  2.4630625798722237e+07  2.4687573978827450e+07  2.4653140689946853e+07  2.4644261092499271e+07  2.4682107768153973e+07  2.4643145167580042e+07  2.4679467371935636e+07  2.4647790050848592e+07  2.4683903773159973e+07  2.4645576590600677e+07  2.4700333275247496e+07  2.4670919152996674e+07  2.4668374588728547e+07  2.4664073945763838e+07  2.4642091539916348e+07  2.4684950835264236e+07  2.4665413966529660e+07  2.4661934616672345e+07  2.4637048587522335e+07  2.4657337281129729e+07  2.4645107548924875e+07  2.4642042444809828e+07  2.4641061