<?xml version="1.0"?>
<VTKFile type="UnstructuredGrid"  version="0.1"  >
<UnstructuredGrid>
<Piece  NumberOfPoints="3002" NumberOfCells="5870">
<Points>
<DataArray  type="Float64"  NumberOfComponents="3"  format="ascii">323455.6100285493 6048753.88242996 0  323455.6100285493 5954782.59950515 0  405920.1480513444 5954782.59950515 0  405920.1480513444 6048753.88242996 0  405920.1480513444 6001768.240967555 0  323455.6100285493 6001768.240967555 0  364687.8790399469 5954782.59950515 0  364687.8790399469 6048753.88242996 0  364687.8790399469 5996367.117560402 0  323455.6100285493 6025261.061698757 0  382226.6271443229 6022560.499995181 0  405920.1480513444 5978275.420236353 0  323455.6100285493 5978275.420236353 0  353897.8957397301 6022560.499995181 0  344071.7445342481 5954782.59950515 0  385304.0135456456 5954782.59950515 0  405920.1480513444 6025261.061698757 0  354379.8117870975 5975574.858532775 0  381582.8168806895 5978840.396198289 0  384950.2598624413 6001768.240967555 0  344643.0480768835 6003429.02033719 0  344071.7445342481 6048753.88242996 0  385304.0135456456 6048753.88242996 0  339717.0321562298 5986078.187627405 0  337515.036058786 5969821.016310448 0  368062.2614420265 6013076.224998265 0  368062.2614420265 6032044.774992097 0  393987.6142659165 5988729.699941677 0  405920.1480513444 6013514.651333156 0  392856.2821527076 6034589.119828064 0  393514.9611654527 5968369.338068204 0  339399.8087404341 6032061.482581838 0  323455.6100285493 6013514.651333156 0  374995.9462927963 5965504.865595459 0  354379.8117870975 6037976.901948514 0  338123.9088969378 6017031.529131207 0  367397.3120126425 5982072.559192053 0  351882.5752379905 5991998.990225234 0  376945.425450199 5991232.708824487 0  392265.0061656896 6013300.936254065 0  357029.7426706699 6006608.947964352 0  380093.6207558212 6036880.127749795 0  323455.6100285493 5966529.009870751 0  405920.1480513444 6037007.472064359 0  405920.1480513444 5966529.009870751 0  323455.6100285493 6037007.472064359 0  333763.6772813987 6048753.88242996 0  405920.1480513444 5990021.830601954 0  323455.6100285493 5990021.830601954 0  362879.3643765316 5966837.319094267 0  348367.6438548031 5965604.161682394 0  334493.1989038612 5996935.948935225 0  395068.5043068817 6023875.372615605 0  348216.0324377587 6013504.844950221 0  379305.9090074943 6011603.390019651 0  372523.5158233726 6003480.000732267 0  395435.2039568929 5999384.346358113 0  395612.080798495 5954782.59950515 0  333763.6772813987 5954782.59950515 0  395612.080798495 6048753.88242996 0  374995.9462927963 6048753.88242996 0  374995.9462927963 5954782.59950515 0  354379.8117870975 6048753.88242996 0  354379.8117870975 5954782.59950515 0  335074.5981535012 6007206.680367459 0  391925.2695590468 5978591.908877409 0  371969.1707190623 6022560.499995181 0  383872.162544519 5969415.106147043 0  358038.7139835292 5984533.09712744 0  369699.869182786 5973102.2359358 0  369841.9126663716 6041099.453006387 0  343176.7440329155 5994428.220622956 0  362933.5332293962 6024385.235173292 0  330640.1760208776 5984148.625419154 0  348684.7494355051 5983110.856817525 0  399094.9690929834 6007537.420809742 0  345447.6324516311 5974162.84917082 0  332859.7749513451 6039150.972778062 0  344517.044630671 6024057.945416138 0  332973.1214415312 6025037.914505113 0  341428.0126373461 6040493.820728126 0  385874.264691618 5992757.40885039 0  350337.3662538711 6030387.535304286 0  359887.2373602368 6016186.250094838 0  377097.8989316926 6029115.217702097 0  338917.7109078235 5961484.016839475 0  329495.5261590715 5972402.215053552 0  336644.7280634616 5978216.610794215 0  330688.6715098422 5962480.256438018 0  359899.8039476132 6031963.415584587 0  399746.255941904 6030426.523907755 0  385511.6875144855 6030368.508996127 0  387377.735783329 6040763.821024337 0  398832.192399829 5974431.100387635 0  387992.9498994246 5962432.032572681 0  405920.1480513444 5984148.625419153 0  364925.7641745284 6005782.953640081 0  361769.877068089 6041226.651684469 0  398452.9199001931 6040850.732439541 0  398946.6205243983 5962252.502309519 0  362305.5577564609 5975984.89789681 0  356822.8065216601 5998470.186307689 0  386900.7115926162 5984820.732438302 0  329528.0119279922 6032067.230024892 0  331139.6939744562 6013813.572928222 0  398457.5876798834 5982541.698799337 0  405920.1480513444 6019387.856515957 0  398685.5166750694 6017257.578706384 0  348587.9424884976 6042755.309150081 0  369841.9126663716 5960143.732550304 0  380149.979919221 5960143.732550304 0  359533.8454135222 5960172.384722514 0  377147.8814772839 5972649.581024994 0  341756.3455763521 6010124.092444684 0  355615.8176864882 5966311.193813809 0  369144.4338274571 5989807.770003954 0  375185.9047422862 5983510.422041401 0  323455.6100285493 6007641.446150355 0  391856.7960121195 6005888.565703365 0  371978.0245217044 5996361.134308098 0  405920.1480513444 5995895.035784755 0  378877.1880032702 5998073.745937059 0  359056.6617417652 5991643.489540118 0  399278.8743430426 5993436.466134224 0  386116.8775939071 6009922.097099247 0  323455.6100285493 6019387.856515957 0  388994.7833819839 6019826.789191471 0  348897.6207366391 5998116.079250046 0  345456.3301153719 6035064.814295612 0  323455.6100285493 6042880.677247159 0  334124.3013408988 5990072.953472659 0  377097.8989316926 6018059.782440464 0  323455.6100285493 5995895.035784755 0  342871.8474798963 5980154.238874755 0  373596.9793292385 6035659.183886081 0  380149.979919221 6048753.88242996 0  376327.9292813152 6042294.581731233 0  329163.3548105369 6004704.843558955 0  350303.9432136903 6007093.032074522 0  383982.6552804571 6015912.664375832 0  345515.490569988 5988567.439252969 0  379019.812877927 6004678.052169549 0  365541.9137639466 6018750.691894444 0  349225.7781606728 5954782.59950515 0  352493.3399767278 5960815.406895458 0  363683.8130458911 5986976.225872464 0  386666.791301207 5975084.583584332 0  368937.6553346639 5966171.092344863 0  400003.9882214358 5968352.273777306 0  328776.0063842635 5992958.433193355 0  339958.4428758043 5999572.344589042 0  354577.7732363954 6012555.454074449 0  328609.6436549741 6048753.88242996 0  382053.0280278458 5988228.496807038 0  330708.6817934912 5978212.973348036 0  372084.7734679543 5978495.086505585 0  358568.2738174705 5971419.415228934 0  328931.2672829705 5998832.905089681 0  323455.6100285493 6031134.266881558 0  405920.1480513444 5972402.215053552 0  405920.1480513444 6031134.266881558 0  323455.6100285493 5972402.215053552 0  405920.1480513444 5960655.804687951 0  323455.6100285493 5960655.804687951 0  405920.1480513444 6007641.446150355 0  323455.6100285493 5984148.625419153 0  405920.1480513444 6042880.677247159 0  346648.7613474604 5960023.05127712 0  342415.3891593561 5966358.988213831 0  350507.6510228226 5971111.740321856 0  391773.9667214506 5994456.117700323 0  338875.8905424621 6026088.827345025 0  361429.1735454847 6010511.262533597 0  389395.7028803263 6025805.543023561 0  392895.6464692951 6043315.288173481 0  332846.8296575367 6019296.633131165 0  373337.4404588729 6009693.515402478 0  336544.3064612215 6043648.151399015 0  348610.2411382072 6019567.839754772 0  381943.4597763228 6042183.394750732 0  355630.0631288611 6028071.82801846 0  363941.5238882306 6035967.852698964 0  328179.67203552 6022271.326978176 0  401066.2857736665 5998807.415073814 0  344387.1099621175 6029612.545574771 0  393435.2235156003 5960233.556458537 0  400735.9970493424 6022675.638064924 0  393708.5772019727 6029179.837160029 0  400609.0696943338 5987857.851798974 0  361753.6614662939 6001152.171757337 0  400766.1144249197 6048753.88242996 0  353363.0524357285 6002630.165620538 0  343248.328463803 6018790.640008039 0  356419.8105951758 6043365.392189237 0  390234.385899412 6000759.497967276 0  368336.1168551637 6000220.532318851 0  328609.6436549741 5954782.59950515 0  387520.8298169724 6035372.992507171 0  400588.0280660195 6035823.299583429 0  329021.6598427091 6043194.252697862 0  393371.710206733 5983576.325812268 0  393638.9721728675 5973623.513063556 0  371727.9212466564 6017113.044457142 0  364687.2762977295 5959941.212693035 0  374995.9462927962 5960346.83186599 0  369841.9126663716 5954782.59950515 0  400766.1144249197 5954782.59950515 0  338917.7109078234 5954782.59950515 0  369841.9126663716 6048753.88242996 0  359533.8454135222 5954782.59950515 0  390458.0471720704 6048753.88242996 0  338917.7109078234 6048753.88242996 0  390458.0471720704 5954782.59950515 0  359533.8454135222 6048753.88242996 0  380149.979919221 5954782.59950515 0  349225.7781606728 6048753.88242996 0  339867.4956514095 6005339.817053361 0  333737.9460226952 6002130.523287664 0  336955.8140048417 6012008.440073739 0  377097.8989316926 6023232.32559834 0  371748.9790486701 6028016.629988787 0  338146.5171983215 5993298.164761053 0  355016.8390227688 6017610.913088997 0  393953.1528190996 6018968.416019509 0  335185.8133477239 5965142.63403323 0  328616.6041642396 5967263.80307608 0  380314.9487662361 5965460.362415641 0  354622.8993466098 6032976.142863722 0  328521.4725131759 6027215.026914048 0  334465.0783479523 6034070.534389696 0  328123.6212682287 6009699.206425843 0  381889.5169855529 5973936.741901617 0  359122.3484437474 6036790.002992895 0  386341.6533148278 5979963.279841923 0  400798.2159679119 6012477.871311778 0  388538.3765260249 5967461.292146791 0  340833.8784183678 5975728.708105717 0  355307.6239213505 5988552.151815021 0  362181.4274823388 5981261.937800813 0  353784.0322742948 5981044.538811012 0  358045.1698423899 5978741.391518688 0  328423.7350325213 6036912.015930048 0  366897.6876966125 6027277.723668203 0  347355.1745641421 5978532.307510624 0  376820.5060332146 5979033.270735624 0  349378.1778589479 6024378.632814493 0  327189.2282939323 6016451.253924556 0  338433.8773236172 6036753.902881841 0  350141.9760340559 5987605.90026687 0  363794.7083927878 5991713.491814731 0  350325.1285660182 6035273.515460094 0  382355.9358007369 5983507.499638396 0  327107.0747437811 59811
[...]
<PointData  Scalars="f_78871-0"> 
<DataArray  type="Float64"  Name="f_78871-0"  format="ascii">2.2811543955286227e+07  2.2941459861520141e+07  2.3199784214109257e+07  2.2984791122624949e+07  2.3328194816215821e+07  2.2974538472895399e+07  2.3143797711476907e+07  2.2942018414494999e+07  2.3892131294842724e+07  2.2874980949311737e+07  2.3197004115583871e+07  2.3294071798678380e+07  2.2971811517929312e+07  2.3075768192828812e+07  2.3009407221768979e+07  2.3204635806457337e+07  2.3107349118562512e+07  2.3185163942912202e+07  2.3426966974229787e+07  2.3601940522204928e+07  2.3143159971985254e+07  2.2856719569422241e+07  2.2982887895666756e+07  2.3070096484235998e+07  2.2997741613819201e+07  2.3458186464296725e+07  2.3045517696961001e+07  2.3422064113087557e+07  2.3228637662021577e+07  2.3037666377829082e+07  2.3250568002748460e+07  2.2884855753197070e+07  2.2931797083287336e+07  2.3233762791604329e+07  2.2930483725053575e+07  2.2973105981147360e+07  2.3475887340413827e+07  2.3306565121993668e+07  2.3987009417979255e+07  2.3288559236395787e+07  2.3423005318741359e+07  2.3022574257710744e+07  2.2950807911687430e+07  2.3017373651512045e+07  2.3227424816547323e+07  2.2828908345153835e+07  2.2823749323970910e+07  2.3348977390083455e+07  2.2986131587272689e+07  2.3183045720354095e+07  2.3058791726400726e+07  2.3028747593484573e+07  2.3136095014343049e+07  2.3119689209478803e+07  2.3464175549905889e+07  2.3923740296978451e+07  2.3406048194176301e+07  2.3202983331130289e+07  2.2959644639372349e+07  2.2985143028073832e+07  2.2970351633591473e+07  2.3188411749365706e+07  2.2900455981228918e+07  2.3077607209253531e+07  2.3004833500752121e+07  2.3348248284087837e+07  2.3207121720436197e+07  2.3278135518218800e+07  2.3362775478247043e+07  2.3305293590622615e+07  2.2977222882076364e+07  2.3135164750169601e+07  2.3128740357587472e+07  2.2997372809520483e+07  2.3174435633399747e+07  2.3306993050331444e+07  2.3075572669944901e+07  2.2834753178932816e+07  2.2971183448758170e+07  2.2894466876245283e+07  2.2858801636544626e+07  2.3633533615972310e+07  2.2960820190668885e+07  2.3263607217452757e+07  2.3101675302792620e+07  2.2986346297674108e+07  2.2969205430666894e+07  2.3017959057357647e+07  2.2955346747842547e+07  2.3007672646444429e+07  2.3064549006894238e+07  2.3082314848003980e+07  2.3002174058359507e+07  2.3280028624351554e+07  2.3223139828894373e+07  2.3327562686486755e+07  2.3766511961654156e+07  2.2948229007065970e+07  2.3000504048527934e+07  2.3213945888870392e+07  2.3286610024171695e+07  2.3499202870517977e+07  2.3488043156410985e+07  2.2851480611464459e+07  2.2947833900071967e+07  2.3339812338440929e+07  2.3166650114796977e+07  2.3201600337415423e+07  2.2883191392412566e+07  2.3180559283411309e+07  2.3210301183939263e+07  2.3121246057095505e+07  2.3323185356497988e+07  2.3058327038221639e+07  2.3121468678928327e+07  2.3786341921711951e+07  2.3581269170805778e+07  2.2955999579627529e+07  2.3396366467284165e+07  2.4241758657648154e+07  2.3350564967768013e+07  2.3943652434791937e+07  2.3516270931060687e+07  2.3378736618564103e+07  2.3413817931956220e+07  2.2903543951097842e+07  2.3212191019748744e+07  2.3248955897757359e+07  2.2899523111899197e+07  2.2815949269020155e+07  2.3026061183015108e+07  2.3305999680251695e+07  2.2984576937297083e+07  2.3080741896940805e+07  2.3024081815203834e+07  2.2978315185137544e+07  2.2986147236463241e+07  2.2977922321485147e+07  2.3230529489480928e+07  2.3313218122879259e+07  2.3157572526985399e+07  2.3691711981658403e+07  2.3265314504370335e+07  2.3042346981197998e+07  2.3073106915985558e+07  2.3544767784037560e+07  2.3337104512288693e+07  2.3215658393225197e+07  2.3239823509026796e+07  2.2996430326219480e+07  2.3083762908504881e+07  2.3245572765704617e+07  2.2814733774797413e+07  2.3669848008749388e+07  2.2985946274698962e+07  2.3425391560134470e+07  2.3189158723327283e+07  2.2991701678875081e+07  2.2849348731761128e+07  2.3258058774424400e+07  2.3056130259219658e+07  2.2960955533431817e+07  2.3207060879229609e+07  2.2944065304823097e+07  2.3285317828891944e+07  2.2981438279720195e+07  2.2993133767389864e+07  2.3030201500169475e+07  2.3018024014631029e+07  2.3106258037635598e+07  2.3481299888091423e+07  2.2917125075833507e+07  2.3447867929641005e+07  2.3128388975693740e+07  2.2992970823351543e+07  2.2925969536777440e+07  2.3594758405699071e+07  2.2834957956958689e+07  2.3054892495055266e+07  2.2993479388013374e+07  2.3021756303778350e+07  2.2990662037838832e+07  2.2894325042186007e+07  2.3355988614149969e+07  2.2927303334738154e+07  2.3211595727037020e+07  2.3136849215204198e+07  2.3082644902516995e+07  2.3357002804181911e+07  2.3757790068562236e+07  2.2985130442931775e+07  2.3355714524749074e+07  2.3005344156020097e+07  2.2917222730477635e+07  2.3484304950640049e+07  2.4236990407168549e+07  2.2946135666284099e+07  2.3034815713471744e+07  2.3025004133217432e+07  2.2819295694723614e+07  2.3387571536207587e+07  2.3290831329107266e+07  2.3339156630468484e+07  2.3153232575597420e+07  2.3200410451158702e+07  2.3169751810039315e+07  2.3200893064066891e+07  2.2981100210289981e+07  2.2958110749448046e+07  2.3112292983571503e+07  2.2984937912159860e+07  2.2838113150247108e+07  2.3204901662775151e+07  2.2922226582270529e+07  2.3199761464427933e+07  2.2877903718444828e+07  2.3062509872031815e+07  2.3012647126340739e+07  2.2995636432082850e+07  2.3195869725546177e+07  2.3110223994033117e+07  2.3065989723088916e+07  2.3164298528722581e+07  2.3199917724789135e+07  2.2975000444491573e+07  2.2957448911742020e+07  2.3242227107227743e+07  2.2966732383097589e+07  2.2870814026279744e+07  2.2856268565973513e+07  2.2955293014458064e+07  2.3339044362301141e+07  2.2962116736766465e+07  2.3411748981343258e+07  2.3247867419556759e+07  2.3253484306505602e+07  2.3041583518966250e+07  2.3359594720561408e+07  2.3378738280398820e+07  2.3236345426454525e+07  2.3272324191714611e+07  2.2832737682595834e+07  2.3104751073976949e+07  2.3123056631579421e+07  2.3448857936460681e+07  2.3010145037010346e+07  2.2921574412161227e+07  2.2859722125550244e+07  2.3235007972833686e+07  2.3692441138416767e+07  2.2924854013036624e+07  2.3528394795847356e+07  2.2980713482156038e+07  2.3026507292955350e+07  2.2992173027524766e+07  2.3755052896625228e+07  2.3264376109723836e+07  2.3247599593884014e+07  2.3364693838608071e+07  2.2969914330101386e+07  2.2953171520890441e+07  2.3002098148048323e+07  2.2973877557281170e+07  2.2992928979738530e+07  2.3148879361631192e+07  2.3430086830245335e+07  2.2872694554789491e+07  2.3600646686071131e+07  2.2934198357189089e+07  2.3134181117564123e+07  2.3507821034378581e+07  2.3882444754358876e+07  2.3154872314682875e+07  2.3058795631214846e+07  2.3217109178664304e+07  2.3327539627317611e+07  2.3318168656102322e+07  2.3364850683046475e+07  2.3544327654084031e+07  2.3120612940461565e+07  2.3050072018395796e+07  2.3101541265597783e+07  2.3236367659841493e+07  2.3373545969968852e+07  2.3625042188859425e+07  2.3009975161665075e+07  2.3286523933645766e+07  2.2849483143563721e+07  2.3031564167074054e+07  2.3183478372042358e+07  2.3315297461140174e+07  2.3256104989615895e+07  2.2988886856120698e+07  2.3123377022589628e+07  2.3065656468055483e+07  2.3761056744657364e+07  2.3065472357044347e+07  2.2970685547173191e+07  2.3002096187921576e+07  2.3478299546555486e+07  2.3007232858735718e+07  2.3040178433669008e+07  2.2968659260167249e+07  2.3046134390689373e+07  2.2988340251443844e+07  2.3003562078618549e+07  2.2948704554725483e+07  2.4037987086980645e+07  2.2895427055701163e+07  2.3640555974964123e+07  2.2880568622310918e+07  2.2952841150982596e+07  2.3016706097810019e+07  2.3225313830911517e+07  2.3046546692466222e+07  2.2971105514009219e+07  2.3081508884520140e+07  2.3225375151771415e+07  2.3221447629678629e+07  2.3204371270862266e+07  2.3203146617879603e+07  2.3357349872604828e+07  2.3638943449966531e+07  2.3506717928205047e+07  2.3203549700066771e+07  2.3307229701666199e+07  2.3208822206704505e+07  2.2945888107294198e+07  2.2990592654493675e+07  2.3140119375119969e+07  2.3277843446316469e+07  2.3261006397877015e+07  2.3132816000313815e+07  2.3094909437874839e+07  2.3095950587057125e+07  2.3041644719479937e+07  2.3741278496969052e+07  2.3288139099119604e+07  2.3209009011684790e+07  2.3150679164474163e+07  2.3561933308769930e+07  2.3607988857264824e+07  2.3914488936725862e+07  2.3983738233003013e+07  2.2935372048757173e+07  2.3408671359115742e+07  2.3144933666077625e+07  2.2958753137079570e+07  2.3066639347717371e+07  2.3269824365051586e+07  2.2812780216508295e+07  2.2821474673296612e+07  2.3374411959822334e+07  2.2960506978083424e+07  2.2975777572882682e+07  2.3422041813927215e+07  2.2904959081980392e+07  2.3288661523760889e+07  2.3017911590550967e+07  2.3341445737928003e+07  2.3376038326064747e+07  2.3016066015561387e+07  2.2838106931124251e+07  2.3715605272203043e+07  2.3415503134606782e+07  2.3257611733656101e+07  2.3164396757038675e+07  2.3178911667069521e+07  2.2823687351666726e+07  2.2864767790071428e+07  2.2981716098485429e+07  2.3750113622357018e+07  2.3358268553050861e+07  2.3091344232627846e+07  2.3107088506027754e+07  2.3142389358936135e+07  2.3205456288161892e+07  2.3183440571111538e+07  2.3197745831011031e+07  2.3354819599908870e+07  2.3261856297336482e+07  2.3162719339656167e+07  2.2989933744770013e+07  2.3220386694084406e+07  2.3223556375869557e+07  2.2995108358900804e+07  2.3231561450292584e+07  2.3616012117847513e+07  2.3234352175593700e+07  2.3168680395879071e+07  2.3160206134577539e+07  2.3130549521961514e+07  2.2955636076670133e+07  2.3096082395233057e+07  2.3453984260151464e+07  2.3028624804871101e+07  2.2978406728624728e+07  2.3021591071530197e+07  2.3058062177148320e+07  2.2964799673334200e+07  2.3060279934509575e+07  2.3054737572200768e+07  2.2875052887330096e+07  2.3049586748488329e+07  2.3353362287242115e+07  2.3267952733667329e+07  2.3322214144524619e+07  2.3384194567005686e+07  2.3443915043394510e+07  2.3144061403913263e+07  2.3362260238406122e+07  2.3007909073590457e+07  2.2990585744221628e+07  2.3359309205181599e+07  2.2842802512571320e+07  2.3573572367008198e+07  2.4236101682011388e+07  2.2965905891329162e+07  2.2910080220035411e+07  2.3220620207017321e+07  2.3012237505238313e+07  2.3519303060212780e+07  2.2935220864569031e+07  2.2980732375260185e+07  2.3035065428347133e+07  2.3044931774479266e+07  2.2985986494317863e+07  2.3358825162850887e+07  2.3388001354326069e+07  2.3258218429301623e+07  2.3276816444193527e+07  2.3018710668866031e+07  2.3473128994276255e+07  2.3440601386655398e+07  2.3520725314920653e+07  2.3252270657325059e+07  2.3005482721583690e+07  2.3337685639187545e+07  2.3292622376611341e+07  2.3197516944257695e+07  2.3585623677705266e+07  2.3150911041796248e+07  2.3031449531911183e+07  2.4013523353096072e+07  2.2963322825785041e+07  2.3171940847696349e+07  2.3313584076683614e+07  2.3314794518208254e+07  2.3006608580618486e+07  2.3032188658484299e+07  2.3049326062845539e+07  2.4174249133518506e+07  2.3431993549333099e+07  2.3241714059232563e+07  2.3250447034510985e+07  2.3246502502183441e+07  2.2937806089648347e+07  2.3299813920727383e+07  2.3171481041313451e+07  2.3348165489137832e+07  2.3016320962354083e+07  2.2898549942849360e+07  2.2927303870093107e+07  2.3042185575288706e+07  2.2959426039631631e+07  2.3076930526294686e+07  2.2959731667740379e+07  2.3096608571333203e+07  2.3204702647706207e+07  2.3416543423529822e+07  2.3000788461196255e+07  2.3100862658836421e+07  2.3181563791427907e+07  2.2841646394094151e+07  2.4036190953084107e+07  2.3076032340636160e+07  2.3218169871154670e+07  2.3031319985847842e+07  2.3229445710010711e+07  2.3387947741873458e+07  2.2975181995191157e+07  2.3245696610051326e+07  2.3846626063905846e+07  2.2933835700292017e+07  2.3063126957684863e+07  2.3081475631510645e+07  2.3046295044162136e+07  2.2888990601058003e+07  2.3240114892911449e+07  2.3508756993243843e+07  2.4224476746468946e+07  2.3340364502467506e+07  2.3124090957574967e+07  2.2822560281409688e+07  2.3280339310507275e+07  2.3100780190472625e+07  2.3243139789098121e+07  2.2962694254669134e+07  2.2978683023396615e+07  2.2980380425010305e+07  2.3382753441138115e+07  2.2861555338785678e+07  2.2855189808427468e+07  2.2842358698564585e+07  2.2984564156715173e+07  2.3383416493064705e+07  2.3305009262254719e+07  2.3341567976207059e+07  2.2944554522184890e+07  2.3165193984750275e+07  2.3145927276434977e+07  2.3301075019615136e+07  2.2928115336820744e+07  2.3333296178634748e+07  2.3383242193235263e+07  2.3298514792015243e+07  2.3109446157571137e+07  2.3169652640139699e+07  2.3147540262233384e+07  2.3724490458491065e+07  2.3570289351212848e+07  2.3521834346170969e+07  2.3182556921891842e+07  2.2900863787508711e+07  2.3687779208384432e+07  2.2921864258839056e+07  2.3049848634574242e+07  2.2989011490633860e+07  2.2986294617647864e+07  2.3204205225813333e+07  2.3207684941639934e+07  2.2986929539799243e+07  2.3191990221203778e+07  2.3210592359134875e+07  2.2847241834606897e+07  2.2983913038088396e+07  2.3234171806257583e+07  2.3226046431091230e+07  2.3165822416206308e+07  2.2942103634513851e+07  2.2942690334167913e+07  2.3067037715453073e+07  2.2814190522797409e+07  2.3432636297492377e+07  2.3469850132756386e+07  2.3316422644993637e+07  2.3533945296975609e+07  2.3136259474169485e+07  2.3554143813750573e+07  2.2985011181222435e+07  2.3181478423555639e+07  2.3190151652204815e+07  2.3227615055771373e+07  2.3223940246866196e+07  2.2985149102092680e+07  2.3364053926620055e+07  2.2985283433180157e+07  2.2987746782669261e+07  2.2997247886960924e+07  2.2997748455988199e+07  2.2989489794969693e+07  2.3006556824553326e+07  2.3243297020374812e+07  2.3010056092562258e+07  2.2865018267324537e+07  2.3116133192137737e+07  2.3102860146014478e+07  2.3088013103383359e+07  2.3469222995284244e+07  2.3309186619970344e+07  2.2876280850743271e+07  2.2908477615309574e+07  2.3068544523222245e+07  2.3001434566758726e+07  2.2944578647991765e+07  2.3040725839162908e+07  2.3001542150672555e+07  2.2910437892510232e+07  2.3096369269640006e+07  2.3117145831326079e+07  2.3069030435038425e+07  2.4064146330815468e+07  2.3760042743928246e+07  2.3243230196281314e+07  2.2986998666490830e+07  2.2981756333469164e+07  2.2997615605657864e+07  2.2992181456551801e+07  2.2985021462179657e+07  2.2966296391824011e+07  2.2826078056410011e+07  2.3674324495265935e+07  2.3776930150991898e+07  2.3077141675624635e+07  2.3096351691589978e+07  2.3142249967189912e+07  2.2905279399809156e+07  2.2888972814913731e+07  2.2974823942651305e+07  2.3435828050795134e+07  2.3357477921631817e+07  2.3390773758016549e+07  2.3352664850993924e+07  2.3449214949077372e+07  2.3478969163620036e+07  2.3584157303226929e+07  2.3296575905257378e+07  2.2993339954525921e+07  2.3007772367366947e+07  2.2990798623010829e+07  2.3011571687611248e+07  2.3201698794634778e+07  2.3197590170014482e+07  2.2917803080182485e+07  2.2966461275190309e+07  2.3276013840198401e+07  2.3080491282302503e+07  2.3215631296682756e+07  2.2947002067962516e+07  2.3003192173732702e+07  2.3311481256931681e+07  2.2977047030201919e+07  2.3342552171458237e+07  2.3210541537126835e+07  2.3218238101471838e+07  2.3205337545821510e+07  2.3284682689358909e+07  2.3176976613495871e+07  2.3286583442804433e+07  2.2974821963191118e+07  2.3025395585337996e+07  2.3016580245135516e+07  2.2974234604146253e+07  2.2830305852260347e+07  2.2845836268906262e+07  2.2831914938927665e+07  2.3010241098889377e+07  2.3224199354411069e+07  2.3122409032935660e+07  2.3130924991555031e+07  2.3295059759365130e+07  2.3201499174532648e+07  2.3000423466036566e+07  2.2983688547962815e+07  2.3061217357328672e+07  2.3065030370382860e+07  2.3068098285400018e+07  2.2932460757034559e+07  2.2905575125228830e+07  2.3012451048049614e+07  2.2947746286639005e+07  2.2914925786803398e+07  2.2899780477106139e+07  2.3565626872996520e+07  2.3304541272359040e+07  2.2911129877591878e+07  2.3481056529534601e+07  2.2989299648270026e+07  2.3021319423785962e+07  2.2967386772063669e+07  2.3337170439225823e+07  2.3817448641181257e+07  2.2818519138227023e+07  2.2817376414779585e+07  2.3413998364743143e+07  2.2835082422199316e+07  2.2999816148130488e+07  2.3603725682082623e+07  2.3797236497784257e+07  2.3791310092996452e+07  2.3026381923265886e+07  2.2890715947435778e+07  2.3805458747407876e+07  2.3353896982772831e+07  2.2878688133974411e+07  2.3898992292399112e+07  2.3036420062583368e+07  2.2817015244770970e+07  2.3216606184227124e+07  2.2994587458642732e+07  2.3053538654248670e+07  2.3048729659245387e+07  2.2950649840962529e+07  2.3267789279192559e+07  2.2878937580492098e+07  2.3630641637406599e+07  2.3203605692099735e+07  2.3946519979940176e+07  2.3101766813992705e+07  2.2983659229626935e+07  2.3557793718871642e+07  2.3095678656443387e+07  2.3348235623682659e+07  2.2974947000589915e+07  2.3249065455519043e+07  2.3042960176885732e+07  2.3011006958513021e+07  2.3254941069420539e+07  2.3102586049863748e+07  2.2870830450609069e+07  2.3339823939917635e+07  2.3350359644397601e+07  2.3267756966452744e+07  2.3582824750063650e+07  2.2876563927970491e+07  2.3150159082480542e+07  2.3027597550685380e+07  2.2985561844323467e+07  2.3406313432666223e+07  2.3202794265973449e+07  2.3203830421692278e+07  2.3016326966847107e+07  2.3035913762337040e+07  2.3057288344559714e+07  2.3112989049697902e+07  2.3095347503729865e+07  2.4089141740010835e+07  2.3723375924759615e+07  2.3471561029028889e+07  2.3510053375931103e+07  2.3454649450845990e+07  2.3521951809234560e+07  2.3441494793596204e+07  2.3080896217644807e+07  2.3154341335757162e+07  2.3291589515617859e+07  2.2985310195791818e+07  2.3041900000470020e+07  2.3006675297711663e+07  2.3330306271945611e+07  2.3309885484924499e+07  2.3331566664098639e+07  2.3471813245002087e+07  2.2866400373410482e+07  2.2857475155722536e+07  2.3157076337709904e+07  2.3242950656909667e+07  2.3223596443405859e+07  2.2978090029671334e+07  2.2958580854020178e+07  2.3130178147767223e+07  2.3192554908053417e+07  2.3200212485725950e+07  2.2911894597158276e+07  2.3172568869099528e+07  2.3273034756106816e+07  2.3288765713713259e+07  2.3338126083589714e+07  2.3253576617566373e+07  2.3288307729451172e+07  2.3263923932242773e+07  2.3280235519613367e+07  2.2824835865526237e+07  2.2977380057797678e+07  2.2985430480418779e+07  2.3220910073687386e+07  2.3040495347189665e+07  2.2867203683428243e+07  2.2955057718805838e+07  2.2951811832341123e+07  2.2963786738072187e+07  2.3127979290162206e+07  2.3095073406069595e+07  2.3091535867529161e+07  2.3157315351538874e+07  2.3366999251702067e+07  2.3361821676462959e+07  2.3090488568339929e+07  2.3196564337650191e+07  2.2950080196365397e+07  2.3403890110226143e+07  2.2865153506124973e+07  2.2916939107333854e+07  2.3146181629946947e+07  2.3170815498518337e+07  2.3205526098059785e+07  2.3191990717042271e+07  2.3214551778794643e+07  2.2985187570308171e+07  2.3023593059344150e+07  2.3000785794345971e+07  2.3099388048632223e+07  2.2961097387419552e+07  2.2812324180056773e+07  2.3180072686481360e+07  2.3205174998416021e+07  2.2846934712991815e+07  2.2964680958119851e+07  2.2984113893047977e+07  2.3059872574740469e+07  2.3128757831930339e+07  2.3157649815825447e+07  2.3195114992529057e+07  2.2932521838618934e+07  2.3201852121944617e+07  2.2951846898228418e+07  2.2889279619775649e+07  2.2985256625065982e+07  2.2969532193672493e+07  2.3002105876198635e+07  2.3868641099400066e+07  2.3195585072292387e+07  2.3336271492805079e+07  2.3061583020537838e+07  2.2964425753977120e+07  2.2884761349547610e+07  2.3029198796491608e+07  2.2827423140582137e+07  2.3441532232434019e+07  2.3071212005134631e+07  2.2975840634308226e+07  2.3378457138772704e+07  2.2964407369781714e+07  2.3355840987049151e+07  2.3012587522179876e+07  2.3402783820043094e+07  2.2988908834841590e+07  2.3577069547997646e+07  2.3264625369358692e+07  2.3237605024570566e+07  2.3191043309297621e+07  2.2951143096676867e+07  2.3411353015384484e+07  2.3203914190582227e+07  2.3166787112030532e+07  2.2896851597933672e+07  2.3116674136985827e+07  2.2986255317752104e+07  2.2950290983885773e+07  2.2939901