<?xml version="1.0"?>
<VTKFile type="UnstructuredGrid"  version="0.1"  >
<UnstructuredGrid>
<Piece  NumberOfPoints="2745" NumberOfCells="5356">
<Points>
<DataArray  type="Float64"  NumberOfComponents="3"  format="ascii">323455.6100285493 6048753.88242996 0  323455.6100285493 5954782.59950515 0  405920.1480513444 5954782.59950515 0  405920.1480513444 6048753.88242996 0  405920.1480513444 6001768.240967555 0  323455.6100285493 6001768.240967555 0  364687.8790399469 5954782.59950515 0  364687.8790399469 6048753.88242996 0  364687.8790399469 5996367.117560402 0  323455.6100285493 6025261.061698757 0  382226.6271443229 6022560.499995181 0  405920.1480513444 5978275.420236353 0  323455.6100285493 5978275.420236353 0  353897.8957397301 6022560.499995181 0  344071.7445342481 5954782.59950515 0  385304.0135456456 5954782.59950515 0  405920.1480513444 6025261.061698757 0  354379.8117870975 5975574.858532775 0  381582.8168806895 5978840.396198289 0  384950.2598624413 6001768.240967555 0  344643.0480768835 6003429.02033719 0  344071.7445342481 6048753.88242996 0  385304.0135456456 6048753.88242996 0  339717.0321562298 5986078.187627405 0  337515.036058786 5969821.016310448 0  368062.2614420265 6013076.224998265 0  368062.2614420265 6032044.774992097 0  393987.6142659165 5988729.699941677 0  405920.1480513444 6013514.651333156 0  392856.2821527076 6034589.119828064 0  393514.9611654527 5968369.338068204 0  339399.8087404341 6032061.482581838 0  323455.6100285493 6013514.651333156 0  374995.9462927963 5965504.865595459 0  354379.8117870975 6037976.901948514 0  338123.9088969378 6017031.529131207 0  367397.3120126425 5982072.559192053 0  351882.5752379905 5991998.990225234 0  376945.425450199 5991232.708824487 0  392265.0061656896 6013300.936254065 0  357029.7426706699 6006608.947964352 0  380093.6207558212 6036880.127749795 0  323455.6100285493 5966529.009870751 0  405920.1480513444 6037007.472064359 0  405920.1480513444 5966529.009870751 0  323455.6100285493 6037007.472064359 0  333763.6772813987 6048753.88242996 0  405920.1480513444 5990021.830601954 0  323455.6100285493 5990021.830601954 0  362879.3643765316 5966837.319094267 0  348367.6438548031 5965604.161682394 0  334493.1989038612 5996935.948935225 0  395068.5043068817 6023875.372615605 0  348216.0324377587 6013504.844950221 0  379305.9090074943 6011603.390019651 0  372523.5158233726 6003480.000732267 0  395435.2039568929 5999384.346358113 0  395612.080798495 5954782.59950515 0  333763.6772813987 5954782.59950515 0  395612.080798495 6048753.88242996 0  374995.9462927963 6048753.88242996 0  374995.9462927963 5954782.59950515 0  354379.8117870975 6048753.88242996 0  354379.8117870975 5954782.59950515 0  335074.5981535012 6007206.680367459 0  391925.2695590468 5978591.908877409 0  371969.1707190623 6022560.499995181 0  383872.162544519 5969415.106147043 0  358038.7139835292 5984533.09712744 0  369699.869182786 5973102.2359358 0  369841.9126663716 6041099.453006387 0  343176.7440329155 5994428.220622956 0  362933.5332293962 6024385.235173292 0  330640.1760208776 5984148.625419154 0  348684.7494355051 5983110.856817525 0  399094.9690929834 6007537.420809742 0  345447.6324516311 5974162.84917082 0  332859.7749513451 6039150.972778062 0  344517.044630671 6024057.945416138 0  332973.1214415312 6025037.914505113 0  341428.0126373461 6040493.820728126 0  385874.264691618 5992757.40885039 0  350337.3662538711 6030387.535304286 0  359887.2373602368 6016186.250094838 0  377097.8989316926 6029115.217702097 0  338917.7109078235 5961484.016839475 0  329495.5261590715 5972402.215053552 0  336644.7280634616 5978216.610794215 0  330688.6715098422 5962480.256438018 0  359899.8039476132 6031963.415584587 0  399746.255941904 6030426.523907755 0  385511.6875144855 6030368.508996127 0  387377.735783329 6040763.821024337 0  398832.192399829 5974431.100387635 0  387992.9498994246 5962432.032572681 0  405920.1480513444 5984148.625419153 0  364925.7641745284 6005782.953640081 0  361769.877068089 6041226.651684469 0  398452.9199001931 6040850.732439541 0  398946.6205243983 5962252.502309519 0  362305.5577564609 5975984.89789681 0  356822.8065216601 5998470.186307689 0  386900.7115926162 5984820.732438302 0  329528.0119279922 6032067.230024892 0  331139.6939744562 6013813.572928222 0  398457.5876798834 5982541.698799337 0  405920.1480513444 6019387.856515957 0  398685.5166750694 6017257.578706384 0  348587.9424884976 6042755.309150081 0  369841.9126663716 5960143.732550304 0  380149.979919221 5960143.732550304 0  359533.8454135222 5960172.384722514 0  377147.8814772839 5972649.581024994 0  341756.3455763521 6010124.092444684 0  355615.8176864882 5966311.193813809 0  369144.4338274571 5989807.770003954 0  375185.9047422862 5983510.422041401 0  323455.6100285493 6007641.446150355 0  391856.7960121195 6005888.565703365 0  371978.0245217044 5996361.134308098 0  405920.1480513444 5995895.035784755 0  378877.1880032702 5998073.745937059 0  359056.6617417652 5991643.489540118 0  399278.8743430426 5993436.466134224 0  386116.8775939071 6009922.097099247 0  323455.6100285493 6019387.856515957 0  388994.7833819839 6019826.789191471 0  348897.6207366391 5998116.079250046 0  345456.3301153719 6035064.814295612 0  323455.6100285493 6042880.677247159 0  334124.3013408988 5990072.953472659 0  377097.8989316926 6018059.782440464 0  323455.6100285493 5995895.035784755 0  342871.8474798963 5980154.238874755 0  373596.9793292385 6035659.183886081 0  380149.979919221 6048753.88242996 0  376327.9292813152 6042294.581731233 0  329163.3548105369 6004704.843558955 0  350303.9432136903 6007093.032074522 0  383982.6552804571 6015912.664375832 0  345515.490569988 5988567.439252969 0  379019.812877927 6004678.052169549 0  365541.9137639466 6018750.691894444 0  349225.7781606728 5954782.59950515 0  352493.3399767278 5960815.406895458 0  363683.8130458911 5986976.225872464 0  386666.791301207 5975084.583584332 0  368937.6553346639 5966171.092344863 0  400003.9882214358 5968352.273777306 0  328776.0063842635 5992958.433193355 0  339958.4428758043 5999572.344589042 0  354577.7732363954 6012555.454074449 0  328609.6436549741 6048753.88242996 0  382053.0280278458 5988228.496807038 0  330708.6817934912 5978212.973348036 0  372084.7734679543 5978495.086505585 0  358568.2738174705 5971419.415228934 0  328931.2672829705 5998832.905089681 0  323455.6100285493 6031134.266881558 0  405920.1480513444 5972402.215053552 0  405920.1480513444 6031134.266881558 0  323455.6100285493 5972402.215053552 0  405920.1480513444 5960655.804687951 0  323455.6100285493 5960655.804687951 0  405920.1480513444 6007641.446150355 0  323455.6100285493 5984148.625419153 0  405920.1480513444 6042880.677247159 0  346648.7613474604 5960023.05127712 0  342415.3891593561 5966358.988213831 0  350507.6510228226 5971111.740321856 0  391773.9667214506 5994456.117700323 0  338875.8905424621 6026088.827345025 0  361429.1735454847 6010511.262533597 0  389395.7028803263 6025805.543023561 0  392895.6464692951 6043315.288173481 0  332846.8296575367 6019296.633131165 0  373337.4404588729 6009693.515402478 0  336544.3064612215 6043648.151399015 0  348610.2411382072 6019567.839754772 0  381943.4597763228 6042183.394750732 0  355630.0631288611 6028071.82801846 0  363941.5238882306 6035967.852698964 0  328179.67203552 6022271.326978176 0  401066.2857736665 5998807.415073814 0  344387.1099621175 6029612.545574771 0  393435.2235156003 5960233.556458537 0  400735.9970493424 6022675.638064924 0  393708.5772019727 6029179.837160029 0  400609.0696943338 5987857.851798974 0  361753.6614662939 6001152.171757337 0  400766.1144249197 6048753.88242996 0  353363.0524357285 6002630.165620538 0  343248.328463803 6018790.640008039 0  356419.8105951758 6043365.392189237 0  390234.385899412 6000759.497967276 0  368336.1168551637 6000220.532318851 0  328609.6436549741 5954782.59950515 0  387520.8298169724 6035372.992507171 0  400588.0280660195 6035823.299583429 0  329021.6598427091 6043194.252697862 0  393371.710206733 5983576.325812268 0  393638.9721728675 5973623.513063556 0  371727.9212466564 6017113.044457142 0  364687.2762977295 5959941.212693035 0  374995.9462927962 5960346.83186599 0  369841.9126663716 5954782.59950515 0  400766.1144249197 5954782.59950515 0  338917.7109078234 5954782.59950515 0  369841.9126663716 6048753.88242996 0  359533.8454135222 5954782.59950515 0  390458.0471720704 6048753.88242996 0  338917.7109078234 6048753.88242996 0  390458.0471720704 5954782.59950515 0  359533.8454135222 6048753.88242996 0  380149.979919221 5954782.59950515 0  349225.7781606728 6048753.88242996 0  339867.4956514095 6005339.817053361 0  333737.9460226952 6002130.523287664 0  336955.8140048417 6012008.440073739 0  377097.8989316926 6023232.32559834 0  371748.9790486701 6028016.629988787 0  338146.5171983215 5993298.164761053 0  355016.8390227688 6017610.913088997 0  393953.1528190996 6018968.416019509 0  335185.8133477239 5965142.63403323 0  328616.6041642396 5967263.80307608 0  380314.9487662361 5965460.362415641 0  354622.8993466098 6032976.142863722 0  328521.4725131759 6027215.026914048 0  334465.0783479523 6034070.534389696 0  328123.6212682287 6009699.206425843 0  381889.5169855529 5973936.741901617 0  359122.3484437474 6036790.002992895 0  386341.6533148278 5979963.279841923 0  400798.2159679119 6012477.871311778 0  388538.3765260249 5967461.292146791 0  340833.8784183678 5975728.708105717 0  355307.6239213505 5988552.151815021 0  362181.4274823388 5981261.937800813 0  353784.0322742948 5981044.538811012 0  358045.1698423899 5978741.391518688 0  328423.7350325213 6036912.015930048 0  366897.6876966125 6027277.723668203 0  347355.1745641421 5978532.307510624 0  376820.5060332146 5979033.270735624 0  349378.1778589479 6024378.632814493 0  327189.2282939323 6016451.253924556 0  338433.8773236172 6036753.902881841 0  350141.9760340559 5987605.90026687 0  363794.7083927878 5991713.491814731 0  350325.1285660182 6035273.515460094 0  382355.9358007369 5983507.499638396 0  327107.0747437811 59811
[...]
<PointData  Scalars="f_50-0"> 
<DataArray  type="Float64"  Name="f_50-0"  format="ascii">2.0256168237076756e+07  1.9311665204675429e+07  2.0287120633243077e+07  2.1374159047391139e+07  2.1204484350541078e+07  2.1277441106843486e+07  1.9966811366468351e+07  2.0667998775942661e+07  2.1322857560659714e+07  2.1221489732222807e+07  2.0811221149956528e+07  2.1092259395679142e+07  1.9988309123175140e+07  2.0413707538997944e+07  1.9772612882722773e+07  2.0038586733533017e+07  2.1009386928780362e+07  2.0319157075638618e+07  2.0461572369461700e+07  2.1175845350233033e+07  2.0092702771172356e+07  2.0462576027559783e+07  2.0614030257557042e+07  2.0137117536339007e+07  1.9822715736996848e+07  2.0885775232225429e+07  2.0817868098102305e+07  2.1073186731169462e+07  2.1074472209115792e+07  2.1096452063364681e+07  2.0694996430642229e+07  2.0109746979226969e+07  2.2054621783239301e+07  2.0045471554047495e+07  2.0817535142358568e+07  1.9896940901877001e+07  2.0444547792067766e+07  2.0371559528655384e+07  2.1577251421303190e+07  2.0940195333047528e+07  2.0488521374242507e+07  2.0964593640509978e+07  1.9841892706805814e+07  2.1296048594539646e+07  2.0986344304716028e+07  2.0807074181464359e+07  2.0183913814812534e+07  2.1178187073863339e+07  2.1629265058893636e+07  2.0171538604858708e+07  2.0040349072373077e+07  1.9921531121950738e+07  2.0969372355631821e+07  2.0118979410843760e+07  2.0987726403560095e+07  2.1695416403080117e+07  2.1152936470157161e+07  2.0647784752104923e+07  1.9398510813509822e+07  2.1044500216649037e+07  2.0645480734282438e+07  1.9903553897738114e+07  2.0846726129972037e+07  1.9956858349193413e+07  1.9869178441283822e+07  2.0842069996840563e+07  2.0782929921412066e+07  2.0222322151061188e+07  2.0430930697972346e+07  2.0208550403792400e+07  2.1008317616545402e+07  2.0161244096470345e+07  2.0687647559815001e+07  1.9796156687177401e+07  2.0333267696234245e+07  2.1137949533659123e+07  2.0165568410323687e+07  2.0202183114636570e+07  2.0125116271906316e+07  1.9795177767687324e+07  2.0550785747345872e+07  2.1136827635717034e+07  2.0476254815484986e+07  2.0543212753887739e+07  2.0822009648484040e+07  1.9661534418082703e+07  1.9558329146099642e+07  1.9959787802099582e+07  1.9371499180367272e+07  2.0759467912136510e+07  2.1175874079749525e+07  2.0896662439945906e+07  2.1147478844557200e+07  2.1095723190100066e+07  2.0195270011850677e+07  2.1112742182659704e+07  2.1175364648005769e+07  2.0963888007499602e+07  2.1407783204948772e+07  2.0910397180837978e+07  2.0309445633913308e+07  2.0570224701758429e+07  2.0838824423260942e+07  1.9839175252798073e+07  1.9726713682561904e+07  2.1144685758230530e+07  2.0948767584880527e+07  2.1032256510507248e+07  2.0853816531952571e+07  1.9982024144878123e+07  1.9952413033801991e+07  2.0029946304941792e+07  2.0180515268699292e+07  1.9984226183399584e+07  2.0157070987580840e+07  2.1009051947726879e+07  2.0595998205210678e+07  2.1117634249110483e+07  2.1033937248667538e+07  2.2304134061760779e+07  2.1308774761360105e+07  2.1732780918942299e+07  2.0597006471793808e+07  2.1243594907296520e+07  2.0968618657228325e+07  2.1067633227521960e+07  2.0861865678234871e+07  2.0245323853945971e+07  2.0457813297186866e+07  2.0273090660497628e+07  1.9941743420570474e+07  2.0838669218474757e+07  2.1438444224282574e+07  2.0189941271520928e+07  2.0897390604245331e+07  2.0666102103388146e+07  2.1089824877000898e+07  1.9717232691369969e+07  2.0183298333980896e+07  2.0861893881503917e+07  2.0277170712512728e+07  2.1306180500865594e+07  2.0723577348412111e+07  1.9878160434213690e+07  1.9994087302221298e+07  2.0587923406716049e+07  2.0514552459786013e+07  2.0106447256871827e+07  2.1094458406788234e+07  1.9748855986109294e+07  2.0036038350266438e+07  2.0299463415825419e+07  2.0238038961882647e+07  2.1004114267121427e+07  1.9719230600167822e+07  2.0328297912041310e+07  2.0263142431199383e+07  1.9739860316414226e+07  2.0887058810696580e+07  2.1148705624995001e+07  2.1124342862389565e+07  2.0029055831553895e+07  2.1048297829867922e+07  1.9905089586565953e+07  2.1165144481864098e+07  2.1846573770207755e+07  2.1420408058345716e+07  1.9855143535155088e+07  1.9903431950739954e+07  2.0207129680740166e+07  2.1105538618628096e+07  1.9965865739873666e+07  2.0658000646950040e+07  2.0890646231386725e+07  2.1318150590480022e+07  1.9763012697901517e+07  2.1131608314224750e+07  2.0235201574094169e+07  2.0195784375675954e+07  2.1130384321422476e+07  2.0592299187686868e+07  2.0861964268907178e+07  1.9639903752010632e+07  2.1283639351676781e+07  2.0224792333523933e+07  2.0467323530866660e+07  2.1085656970267646e+07  2.1012518101289906e+07  2.1261067870705780e+07  2.1047523694812845e+07  2.1201303928820156e+07  2.0345104765060514e+07  2.0040525737067755e+07  2.0982356070751332e+07  2.1098882440167069e+07  2.2471661330813814e+07  1.9178766368925650e+07  2.1015070518371314e+07  2.1338997809043366e+07  2.0249808110966779e+07  2.0980139444701470e+07  2.0826155320719909e+07  2.0839918928781860e+07  2.0019316450288281e+07  1.9949320582660377e+07  1.9930742573685855e+07  2.1090463567375854e+07  1.9628774088024035e+07  2.0774740604017604e+07  1.9979099985075593e+07  2.0979515025816649e+07  2.0177764347863767e+07  2.0330584144734543e+07  2.0666323640762389e+07  1.9946304795226406e+07  2.0545379246887319e+07  1.9982384793802612e+07  1.9869001710694797e+07  1.9881005164177917e+07  2.0797081760665923e+07  2.0793115707849037e+07  2.0047354049921870e+07  2.0366807178772461e+07  2.0930564827591579e+07  1.9625550623534884e+07  1.9400807544332638e+07  2.0061337850585844e+07  2.0688990540759690e+07  1.9705969128592592e+07  2.0051606525775272e+07  1.9654669461766079e+07  2.0307402129588451e+07  2.0849850457762178e+07  2.0646584221545205e+07  2.1117708996970590e+07  2.0369550056830477e+07  2.0061723708065301e+07  2.0435244082507744e+07  2.0397689058515117e+07  2.0378401396085132e+07  2.0358730921177730e+07  1.9964527849365618e+07  2.0763453185890559e+07  2.0276429536021590e+07  2.0378612436564770e+07  2.0298407996916175e+07  2.2069311097325597e+07  2.0281993943719473e+07  2.0356789210427813e+07  2.0859364118987393e+07  2.0641759032595295e+07  2.0694781212097313e+07  1.9817556777147699e+07  1.9977883632816277e+07  1.9708026314262219e+07  2.1314069698476922e+07  2.0124680046187520e+07  2.0230803337603122e+07  2.0303261912202761e+07  2.0931854857937045e+07  2.0987222931745589e+07  2.0893465774547070e+07  1.9631330987317842e+07  1.9799515691548541e+07  2.0553158272888888e+07  2.0937907992150273e+07  1.9888190037184455e+07  2.1176710596793395e+07  1.9880822004541453e+07  2.0075559753649570e+07  2.1004672532291420e+07  2.1495453436263919e+07  2.0136639634151444e+07  2.0087963533633713e+07  2.0265415524972338e+07  2.1251111465266299e+07  2.1028399859111089e+07  2.1120849408510406e+07  2.1098174669937033e+07  2.0256669610545218e+07  2.0013987910421904e+07  2.0162147537436400e+07  2.0197899869753312e+07  2.0712141431427676e+07  2.0665303424428225e+07  2.1242243833722111e+07  2.0881719881957583e+07  2.0532584685109273e+07  2.0003863102808200e+07  2.0747674160017494e+07  2.1193255324672531e+07  2.1014421683865365e+07  2.1181232229676291e+07  2.0827363826244488e+07  2.0882561838769425e+07  2.0979194296375111e+07  2.0977520851665724e+07  1.9478111853089422e+07  1.9703320582537644e+07  2.1050567686552793e+07  1.9886838374462049e+07  2.0055249963127919e+07  1.9672714166688975e+07  2.0776569187442943e+07  2.1231795722078390e+07  2.1448880940288305e+07  1.9597713572614670e+07  2.1927649523284193e+07  2.0922015181439180e+07  2.0805757450920824e+07  2.0645629550276846e+07  1.9276276877304673e+07  2.1031669141146887e+07  2.0048595220834803e+07  2.0887486710612502e+07  2.0951623767006684e+07  2.0622122759989273e+07  2.0709011817187842e+07  2.1174556300321490e+07  2.0765343703455150e+07  2.1037248935040265e+07  2.0384291089186348e+07  2.0802618839383036e+07  2.0590293866902523e+07  2.1070529858375564e+07  2.1160082839351822e+07  2.0084987667767659e+07  1.9286469272218339e+07  2.1495451449942842e+07  2.0235543916188799e+07  2.1161186191872537e+07  2.0955485587193090e+07  2.0277070436871435e+07  2.1160246730362240e+07  2.1060075439391136e+07  2.1184194726600207e+07  2.1349607600402214e+07  2.0553248570655093e+07  1.9964533466964193e+07  2.0221415877160605e+07  2.0923812861509785e+07  2.0817545242886458e+07  2.1332054291429613e+07  2.1538618473006126e+07  2.0775176379719231e+07  2.0830769258801728e+07  2.0838743716956858e+07  1.9984778307811856e+07  2.0833628323349811e+07  2.0094582525382873e+07  2.0260327171633985e+07  2.0636674889858294e+07  2.0254025721133061e+07  1.9817204504542112e+07  1.9804583657972306e+07  2.0479519796621237e+07  2.0790674217463370e+07  2.0400337564735495e+07  2.1120200921793062e+07  2.1004093731831565e+07  2.1111548872699946e+07  1.9840160259217788e+07  2.0976557738246370e+07  2.1330562412094515e+07  2.1162388966254395e+07  2.1216812401296236e+07  2.1003998434269026e+07  2.0097103832023688e+07  2.0205401998148970e+07  2.0567075400315281e+07  2.0802171309576150e+07  2.1388029351826441e+07  2.1340894840609767e+07  1.9971899694340650e+07  2.0065041171546292e+07  2.0121988830748588e+07  2.0013469622737475e+07  1.9905831323745828e+07  1.9876375169637181e+07  2.0972223242808312e+07  2.0777158126987588e+07  2.0203778055455789e+07  2.1116562843739413e+07  1.9985758553255547e+07  2.0316654101547539e+07  1.9781344639241822e+07  2.0434614831426319e+07  2.0671535319051139e+07  2.0830908328630943e+07  2.0905312162202388e+07  1.9941581892480422e+07  1.9963373261199262e+07  2.0083558217219628e+07  2.0146924620391123e+07  2.0938186854126818e+07  1.9929263040700968e+07  1.9771882719186943e+07  2.0448945059907883e+07  2.0070180176447034e+07  2.0253795449027289e+07  2.0107830172887713e+07  2.0716940156200446e+07  2.0415626846479442e+07  2.0941604288575351e+07  2.0881304297756787e+07  2.0825315692317344e+07  2.0691238891987644e+07  2.0312578012385629e+07  2.0504231262804963e+07  2.0792678502771027e+07  2.1196771454720978e+07  2.0974617293213550e+07  2.1005324418085236e+07  2.0460096486674745e+07  2.0360248643104322e+07  2.0959620195656709e+07  2.2368286062525246e+07  1.9494089026457470e+07  2.0899327714088149e+07  2.0625635763756346e+07  1.9941954261720788e+07  2.0557824600123845e+07  2.0904140498804454e+07  2.0587800833294641e+07  2.1185078389847420e+07  2.1312120870430656e+07  1.9809825436996557e+07  2.1340235184839059e+07  2.1178791155740194e+07  2.1085951435548093e+07  2.1207538999569710e+07  2.1285471096282780e+07  2.1005443874130502e+07  2.0973094282995626e+07  2.0476718284617174e+07  2.0162163622238040e+07  1.9821388211921357e+07  2.1272283191222027e+07  2.0289786432242472e+07  2.0181502821447946e+07  2.1140985614110567e+07  2.0770356624273695e+07  1.9928142261392508e+07  2.1813942859827269e+07  1.9504574839346047e+07  2.0332923068258431e+07  2.0949671355885301e+07  2.0178553732515082e+07  1.9851607247393135e+07  1.9945597279876959e+07  1.9881819717769582e+07  2.2037786739606727e+07  2.1118797257692091e+07  2.1092982877170309e+07  2.0806284744785719e+07  2.0181292451189861e+07  2.2164897638078555e+07  2.0181531047912698e+07  2.1093322958552063e+07  2.0809027946511220e+07  1.9942177931165863e+07  2.0268848230260096e+07  2.0468074728044990e+07  1.9951488624255609e+07  1.9631302845845755e+07  2.0168797166498404e+07  2.0863815633636564e+07  2.0291864604989402e+07  2.0231368737992521e+07  2.1091513382732458e+07  2.1047323680392835e+07  2.0056840399965804e+07  2.0843512375532020e+07  2.0038439813767403e+07  2.1652025903762721e+07  2.0057726898058441e+07  2.0179369379341945e+07  2.0858214800170504e+07  2.0314656478099387e+07  2.0362359239048105e+07  2.0816844299948111e+07  2.0907571775821496e+07  2.1561800508973703e+07  2.0090053492414948e+07  2.0018121851713791e+07  2.0190357419755239e+07  2.0086409330831427e+07  1.9979369064011436e+07  2.0901690934122562e+07  2.1115118497540809e+07  2.2332816654181410e+07  2.1182452631612401e+07  2.0281501351524521e+07  2.0159367810016166e+07  2.1077783030404519e+07  2.0032776218360584e+07  2.0406814928914763e+07  2.1127872311570246e+07  2.1250389328720890e+07  2.1351569522284839e+07  2.0919183406748079e+07  2.1165220359636717e+07  2.1125764200889036e+07  2.1076586597699013e+07  2.1713329711816344e+07  2.1212998291914277e+07  2.0289632207712688e+07  2.0922250798618957e+07  2.2234039301869094e+07  2.0121488774654627e+07  2.0066149076539978e+07  2.0252893760904633e+07  1.9695884796100494e+07  2.0517305643593982e+07  2.0490387581010696e+07  2.0392156803639669e+07  2.0216147513780721e+07  2.0318736077783547e+07  2.0218537489935156e+07  2.1286634540703863e+07  2.1052307468972035e+07  2.1045383107271515e+07  2.0126098172922004e+07  2.0643262434059121e+07  2.0821981019891471e+07  2.0692756632762924e+07  1.9961539018970050e+07  2.1446952640208632e+07  2.1520376164294008e+07  2.1350888478381749e+07  2.0238680354244396e+07  2.1477227595758297e+07  2.0690906371211939e+07  2.1107937132303756e+07  2.0193041375145271e+07  2.0700211927762948e+07  2.1123529004618537e+07  2.0997786729304079e+07  2.0802961816031266e+07  1.9407953279547654e+07  1.9206866872415084e+07  2.1106482602857366e+07  2.0252314263226777e+07  2.0464022857920326e+07  2.0468926847244751e+07  2.0287848028088376e+07  2.1078704875787344e+07  2.1006995001638886e+07  2.0629366659229089e+07  1.9578388959673610e+07  2.0199999312660318e+07  2.0050677011633702e+07  2.0069657201599266e+07  2.0975111726415753e+07  2.0376422426395826e+07  2.0692733456286032e+07  2.0928807484430794e+07  2.1104948802289937e+07  2.1213996392310325e+07  2.1349299082239550e+07  2.1647474506309733e+07  1.9837215317850765e+07  2.0811539155660536e+07  2.0183521117977455e+07  2.0711877088136189e+07  2.0072194741469000e+07  2.0090688116693061e+07  2.0737416336542115e+07  2.1060994826779306e+07  2.1193277632749818e+07  2.0575278164187972e+07  2.0107470574060891e+07  2.1154945261800051e+07  2.0931998364950966e+07  2.0339301326152448e+07  1.9998596224293336e+07  1.9787863349241912e+07  1.9874160438161537e+07  2.0910720343898308e+07  2.0944809807078082e+07  1.9914380620917484e+07  2.1768578275229279e+07  2.1378127574524574e+07  2.0270720318808567e+07  2.1118161958633259e+07  1.9699034540619217e+07  1.9830551439339690e+07  1.9764166926335473e+07  2.1186585119544484e+07  2.1192114746829517e+07  2.0158355583434783e+07  2.1110647710780621e+07  2.1126465664429758e+07  2.0119713574515946e+07  2.0205661659334514e+07  2.0277941233620826e+07  2.1898348678901158e+07  2.1553586823925544e+07  2.0771884431601569e+07  2.0368650743140534e+07  2.0242337143846203e+07  2.0404752631285984e+07  2.1276643101058200e+07  2.1125942299620148e+07  2.0632866540825628e+07  2.0858246937585372e+07  2.1211310763762850e+07  1.9809709949228454e+07  1.9837233446878593e+07  1.9764565774511058e+07  1.9892844231836297e+07  2.0283075750565391e+07  2.1054104234314453e+07  2.1139204963427506e+07  1.9966743718771581e+07  2.1134795109402787e+07  2.1120900626783401e+07  2.1078376017235767e+07  2.0166522738036040e+07  2.1406935871739425e+07  2.1137048408468895e+07  2.1925489766552359e+07  2.1252516500535045e+07  2.0710836431708343e+07  2.0314306865822881e+07  2.0533795301526640e+07  2.0320041680067666e+07  2.0287519661099706e+07  2.0129532560724217e+07  1.9952004904581249e+07  1.9825510426438887e+07  1.9743348355406962e+07  1.9892743366457522e+07  2.0144288514020167e+07  2.0587955599348053e+07  2.0368931209615804e+07  1.9974106811476938e+07  2.0373345016346809e+07  2.1044706574217439e+07  2.1028749819019612e+07  2.0390133599579874e+07  2.0174817564976469e+07  2.0686435564714007e+07  2.0582303281551208e+07  2.0525098816753782e+07  1.9993843873539217e+07  2.0814810887307681e+07  2.0973102067683641e+07  2.0819155322126120e+07  1.9927127427263279e+07  1.9828931203419961e+07  1.9802807490238998e+07  1.9729194951499566e+07  2.0843133441374417e+07  2.1222715992428392e+07  1.9684178529385138e+07  2.0419117106875207e+07  2.0824415254271623e+07  2.0824013559308190e+07  2.0911224848305352e+07  2.1238293105351564e+07  2.1090813243076384e+07  2.0215588065528587e+07  2.0231332701930523e+07  2.0992153178299244e+07  2.0205943463550773e+07  2.1123295602944296e+07  2.0755435144771293e+07  2.1160958738705683e+07  2.1108520325343359e+07  2.1318511933642898e+07  1.9889352451048169e+07  2.1274108619708829e+07  2.1064316743669778e+07  2.0940946206251591e+07  2.1659297302853923e+07  1.9945069620584596e+07  2.0267582533945553e+07  2.0071734043238919e+07  1.9679092537440587e+07  2.1089702599587504e+07  2.0273138058070865e+07  2.0573241778770499e+07  2.0128473039458707e+07  2.0257873578971654e+07  2.1207486556819364e+07  2.0350397746400472e+07  2.1408086628228661e+07  2.0157969245376032e+07  2.1350818357317168e+07  2.1129827322272964e+07  2.0948174473130893e+07  2.1224562789293595e+07  2.0558724814605918e+07  2.1128986693145368e+07  2.1236542595341854e+07  2.1385680206664596e+07  2.0851662333225947e+07  2.0807658955516450e+07  1.9989085673819955e+07  2.1176988336688790e+07  2.0862424169194542e+07  2.0799043076719772e+07  2.1140019333300777e+07  1.9793320460474152e+07  2.1040084633029088e+07  2.0118595868560009e+07  2.0061290308152407e+07  2.0427173147158787e+07  1.9958810189664017e+07  1.9904602346046895e+07  2.1082843758686051e+07  2.1052279810757492e+07  2.0954034537752531e+07  1.9964302570319016e+07  2.0145137190229390e+07  2.1973531931169204e+07  2.0944652796579387e+07  2.1024208551364694e+07  2.0586917580858372e+07  2.1058405294368792e+07  2.1108020641258851e+07  2.1112578387831714e+07  2.0791376158841491e+07  2.0226526253108609e+07  2.0671756158932045e+07  2.1073747030389834e+07  2.0656310839539915e+07  2.1050306671523724e+07  2.0390328766011924e+07  2.0352070678058445e+07  2.0310574052035559e+07  2.0703706871834431e+07  2.0131169455545709e+07  1.9925867409952175e+07  2.0782978858265024e+07  2.0044045786984980e+07  2.0010054340311091e+07  1.9672416175636161e+07  1.9723372267048508e+07  2.0446529296674676e+07  2.0482558019951396e+07  2.0293542116626121e+07  2.0562077638325680e+07  1.9924400318754613e+07  2.0701943057083115e+07  2.0977937526450392e+07  2.1218702557479948e+07  2.0130663096923895e+07  2.0400032704433177e+07  2.0521878030126110e+07  2.0243417717570469e+07  2.0311742720696989e+07  1.9618205660799257e+07  1.9726174113481741e+07  2.1085427555772435e+07  2.0934956440531373e+07  2.0526178729351215e+07  1.9373791391979847e+07  1.9566724689462863e+07  1.9495956729274333e+07  2.0813974408757273e+07  2.0841681928740796e+07  2.0863087063327678e+07  2.0640206027446743e+07  2.0912242062269524e+07  2.1065747898207944e+07  2.0062466780311581e+07  2.0790374904123522e+07  2.0907487913846068e+07  2.1030175174466666e+07  2.1440985974724714e+07  2.0337386958487775e+07  1.9957660283780515e+07  2.0019995360341229e+07  1.9930484989542782e+07  1.9964285572504889e+07  1.9997350859380860e+07  1.9881789008051630e+07  1.9936335965730894e+07  1.9872161771491539e+07  2.0123823912425682e+07  1.9400592362676054e+07  2.0251634218100190e+07  1.9914050364998825e+07  2.0146448945282776e+07  2.0383713482367769e+07  2.0735527563109215e+07  2.0548738021824889e+07  1.9952640752619725e+07  2.3288495588172104e+07  1.9948939773616917e+07  1.9901559085956961e+07  2.0564708868810493e+07  2.0826872481456418e+07  1.9325306026291255e+07  2.0735337793286372e+07  2.1058222780145887e+07  1.9496780449521165e+07  2.1236551317829594e+07  2.1549648039684001e+07  2.0308337501624361e+07  2.0896602532119296e+07  1.9982676458508182e+07  1.9581899602161765e+07  1.9686328094373841e+07  2.1186748702917073e+07  2.0170001920648824e+07  2.0570824234266855e+07  2.0858002994523276e+07  1.9609471454971239e+07  2.0783750448258683e+07  1.9505785118890800e+07  2.1193839517491635e+07  1.9859912278291203e+07  2.1180007261751138e+07  2.1523157500451420e+07  2.1155859221003331e+07  2.0288856906709280e+07  2.0248795790405147e+07  1.9885809448491182e+07  2.0810459419092119e+07  2.0926939774496567e+07  2.0892758844607897e+07  2.0945559437872723e+07  2.0868877829329230e+07  2.0849327384571061e+07  2.1388492405576531e+07  2.0610197392414268e+07  2.0727449643891