<?xml version="1.0"?>
<VTKFile type="UnstructuredGrid"  version="0.1"  >
<UnstructuredGrid>
<Piece  NumberOfPoints="3002" NumberOfCells="5870">
<Points>
<DataArray  type="Float64"  NumberOfComponents="3"  format="ascii">323455.6100285493 6048753.88242996 0  323455.6100285493 5954782.59950515 0  405920.1480513444 5954782.59950515 0  405920.1480513444 6048753.88242996 0  405920.1480513444 6001768.240967555 0  323455.6100285493 6001768.240967555 0  364687.8790399469 5954782.59950515 0  364687.8790399469 6048753.88242996 0  364687.8790399469 5996367.117560402 0  323455.6100285493 6025261.061698757 0  382226.6271443229 6022560.499995181 0  405920.1480513444 5978275.420236353 0  323455.6100285493 5978275.420236353 0  353897.8957397301 6022560.499995181 0  344071.7445342481 5954782.59950515 0  385304.0135456456 5954782.59950515 0  405920.1480513444 6025261.061698757 0  354379.8117870975 5975574.858532775 0  381582.8168806895 5978840.396198289 0  384950.2598624413 6001768.240967555 0  344643.0480768835 6003429.02033719 0  344071.7445342481 6048753.88242996 0  385304.0135456456 6048753.88242996 0  339717.0321562298 5986078.187627405 0  337515.036058786 5969821.016310448 0  368062.2614420265 6013076.224998265 0  368062.2614420265 6032044.774992097 0  393987.6142659165 5988729.699941677 0  405920.1480513444 6013514.651333156 0  392856.2821527076 6034589.119828064 0  393514.9611654527 5968369.338068204 0  339399.8087404341 6032061.482581838 0  323455.6100285493 6013514.651333156 0  374995.9462927963 5965504.865595459 0  354379.8117870975 6037976.901948514 0  338123.9088969378 6017031.529131207 0  367397.3120126425 5982072.559192053 0  351882.5752379905 5991998.990225234 0  376945.425450199 5991232.708824487 0  392265.0061656896 6013300.936254065 0  357029.7426706699 6006608.947964352 0  380093.6207558212 6036880.127749795 0  323455.6100285493 5966529.009870751 0  405920.1480513444 6037007.472064359 0  405920.1480513444 5966529.009870751 0  323455.6100285493 6037007.472064359 0  333763.6772813987 6048753.88242996 0  405920.1480513444 5990021.830601954 0  323455.6100285493 5990021.830601954 0  362879.3643765316 5966837.319094267 0  348367.6438548031 5965604.161682394 0  334493.1989038612 5996935.948935225 0  395068.5043068817 6023875.372615605 0  348216.0324377587 6013504.844950221 0  379305.9090074943 6011603.390019651 0  372523.5158233726 6003480.000732267 0  395435.2039568929 5999384.346358113 0  395612.080798495 5954782.59950515 0  333763.6772813987 5954782.59950515 0  395612.080798495 6048753.88242996 0  374995.9462927963 6048753.88242996 0  374995.9462927963 5954782.59950515 0  354379.8117870975 6048753.88242996 0  354379.8117870975 5954782.59950515 0  335074.5981535012 6007206.680367459 0  391925.2695590468 5978591.908877409 0  371969.1707190623 6022560.499995181 0  383872.162544519 5969415.106147043 0  358038.7139835292 5984533.09712744 0  369699.869182786 5973102.2359358 0  369841.9126663716 6041099.453006387 0  343176.7440329155 5994428.220622956 0  362933.5332293962 6024385.235173292 0  330640.1760208776 5984148.625419154 0  348684.7494355051 5983110.856817525 0  399094.9690929834 6007537.420809742 0  345447.6324516311 5974162.84917082 0  332859.7749513451 6039150.972778062 0  344517.044630671 6024057.945416138 0  332973.1214415312 6025037.914505113 0  341428.0126373461 6040493.820728126 0  385874.264691618 5992757.40885039 0  350337.3662538711 6030387.535304286 0  359887.2373602368 6016186.250094838 0  377097.8989316926 6029115.217702097 0  338917.7109078235 5961484.016839475 0  329495.5261590715 5972402.215053552 0  336644.7280634616 5978216.610794215 0  330688.6715098422 5962480.256438018 0  359899.8039476132 6031963.415584587 0  399746.255941904 6030426.523907755 0  385511.6875144855 6030368.508996127 0  387377.735783329 6040763.821024337 0  398832.192399829 5974431.100387635 0  387992.9498994246 5962432.032572681 0  405920.1480513444 5984148.625419153 0  364925.7641745284 6005782.953640081 0  361769.877068089 6041226.651684469 0  398452.9199001931 6040850.732439541 0  398946.6205243983 5962252.502309519 0  362305.5577564609 5975984.89789681 0  356822.8065216601 5998470.186307689 0  386900.7115926162 5984820.732438302 0  329528.0119279922 6032067.230024892 0  331139.6939744562 6013813.572928222 0  398457.5876798834 5982541.698799337 0  405920.1480513444 6019387.856515957 0  398685.5166750694 6017257.578706384 0  348587.9424884976 6042755.309150081 0  369841.9126663716 5960143.732550304 0  380149.979919221 5960143.732550304 0  359533.8454135222 5960172.384722514 0  377147.8814772839 5972649.581024994 0  341756.3455763521 6010124.092444684 0  355615.8176864882 5966311.193813809 0  369144.4338274571 5989807.770003954 0  375185.9047422862 5983510.422041401 0  323455.6100285493 6007641.446150355 0  391856.7960121195 6005888.565703365 0  371978.0245217044 5996361.134308098 0  405920.1480513444 5995895.035784755 0  378877.1880032702 5998073.745937059 0  359056.6617417652 5991643.489540118 0  399278.8743430426 5993436.466134224 0  386116.8775939071 6009922.097099247 0  323455.6100285493 6019387.856515957 0  388994.7833819839 6019826.789191471 0  348897.6207366391 5998116.079250046 0  345456.3301153719 6035064.814295612 0  323455.6100285493 6042880.677247159 0  334124.3013408988 5990072.953472659 0  377097.8989316926 6018059.782440464 0  323455.6100285493 5995895.035784755 0  342871.8474798963 5980154.238874755 0  373596.9793292385 6035659.183886081 0  380149.979919221 6048753.88242996 0  376327.9292813152 6042294.581731233 0  329163.3548105369 6004704.843558955 0  350303.9432136903 6007093.032074522 0  383982.6552804571 6015912.664375832 0  345515.490569988 5988567.439252969 0  379019.812877927 6004678.052169549 0  365541.9137639466 6018750.691894444 0  349225.7781606728 5954782.59950515 0  352493.3399767278 5960815.406895458 0  363683.8130458911 5986976.225872464 0  386666.791301207 5975084.583584332 0  368937.6553346639 5966171.092344863 0  400003.9882214358 5968352.273777306 0  328776.0063842635 5992958.433193355 0  339958.4428758043 5999572.344589042 0  354577.7732363954 6012555.454074449 0  328609.6436549741 6048753.88242996 0  382053.0280278458 5988228.496807038 0  330708.6817934912 5978212.973348036 0  372084.7734679543 5978495.086505585 0  358568.2738174705 5971419.415228934 0  328931.2672829705 5998832.905089681 0  323455.6100285493 6031134.266881558 0  405920.1480513444 5972402.215053552 0  405920.1480513444 6031134.266881558 0  323455.6100285493 5972402.215053552 0  405920.1480513444 5960655.804687951 0  323455.6100285493 5960655.804687951 0  405920.1480513444 6007641.446150355 0  323455.6100285493 5984148.625419153 0  405920.1480513444 6042880.677247159 0  346648.7613474604 5960023.05127712 0  342415.3891593561 5966358.988213831 0  350507.6510228226 5971111.740321856 0  391773.9667214506 5994456.117700323 0  338875.8905424621 6026088.827345025 0  361429.1735454847 6010511.262533597 0  389395.7028803263 6025805.543023561 0  392895.6464692951 6043315.288173481 0  332846.8296575367 6019296.633131165 0  373337.4404588729 6009693.515402478 0  336544.3064612215 6043648.151399015 0  348610.2411382072 6019567.839754772 0  381943.4597763228 6042183.394750732 0  355630.0631288611 6028071.82801846 0  363941.5238882306 6035967.852698964 0  328179.67203552 6022271.326978176 0  401066.2857736665 5998807.415073814 0  344387.1099621175 6029612.545574771 0  393435.2235156003 5960233.556458537 0  400735.9970493424 6022675.638064924 0  393708.5772019727 6029179.837160029 0  400609.0696943338 5987857.851798974 0  361753.6614662939 6001152.171757337 0  400766.1144249197 6048753.88242996 0  353363.0524357285 6002630.165620538 0  343248.328463803 6018790.640008039 0  356419.8105951758 6043365.392189237 0  390234.385899412 6000759.497967276 0  368336.1168551637 6000220.532318851 0  328609.6436549741 5954782.59950515 0  387520.8298169724 6035372.992507171 0  400588.0280660195 6035823.299583429 0  329021.6598427091 6043194.252697862 0  393371.710206733 5983576.325812268 0  393638.9721728675 5973623.513063556 0  371727.9212466564 6017113.044457142 0  364687.2762977295 5959941.212693035 0  374995.9462927962 5960346.83186599 0  369841.9126663716 5954782.59950515 0  400766.1144249197 5954782.59950515 0  338917.7109078234 5954782.59950515 0  369841.9126663716 6048753.88242996 0  359533.8454135222 5954782.59950515 0  390458.0471720704 6048753.88242996 0  338917.7109078234 6048753.88242996 0  390458.0471720704 5954782.59950515 0  359533.8454135222 6048753.88242996 0  380149.979919221 5954782.59950515 0  349225.7781606728 6048753.88242996 0  339867.4956514095 6005339.817053361 0  333737.9460226952 6002130.523287664 0  336955.8140048417 6012008.440073739 0  377097.8989316926 6023232.32559834 0  371748.9790486701 6028016.629988787 0  338146.5171983215 5993298.164761053 0  355016.8390227688 6017610.913088997 0  393953.1528190996 6018968.416019509 0  335185.8133477239 5965142.63403323 0  328616.6041642396 5967263.80307608 0  380314.9487662361 5965460.362415641 0  354622.8993466098 6032976.142863722 0  328521.4725131759 6027215.026914048 0  334465.0783479523 6034070.534389696 0  328123.6212682287 6009699.206425843 0  381889.5169855529 5973936.741901617 0  359122.3484437474 6036790.002992895 0  386341.6533148278 5979963.279841923 0  400798.2159679119 6012477.871311778 0  388538.3765260249 5967461.292146791 0  340833.8784183678 5975728.708105717 0  355307.6239213505 5988552.151815021 0  362181.4274823388 5981261.937800813 0  353784.0322742948 5981044.538811012 0  358045.1698423899 5978741.391518688 0  328423.7350325213 6036912.015930048 0  366897.6876966125 6027277.723668203 0  347355.1745641421 5978532.307510624 0  376820.5060332146 5979033.270735624 0  349378.1778589479 6024378.632814493 0  327189.2282939323 6016451.253924556 0  338433.8773236172 6036753.902881841 0  350141.9760340559 5987605.90026687 0  363794.7083927878 5991713.491814731 0  350325.1285660182 6035273.515460094 0  382355.9358007369 5983507.499638396 0  327107.0747437811 59811
[...]
<PointData  Scalars="f_78871-0"> 
<DataArray  type="Float64"  Name="f_78871-0"  format="ascii">2.4752273995612770e+07  2.4752469556127701e+07  2.4752641825579006e+07  2.4752402354257155e+07  2.4752643156176951e+07  2.4752412158397563e+07  2.4752582138234194e+07  2.4752357051583245e+07  2.4752772948067412e+07  2.4752321679432828e+07  2.4752515091027178e+07  2.4752669668597974e+07  2.4752460714101519e+07  2.4752430647914696e+07  2.4752505440020178e+07  2.4752632453812428e+07  2.4752482861856643e+07  2.4752568232803993e+07  2.4752702937760424e+07  2.4752769325428084e+07  2.4752485257600646e+07  2.4752301337614603e+07  2.4752393668243024e+07  2.4752490036855906e+07  2.4752487140649937e+07  2.4752630203583501e+07  2.4752417278388985e+07  2.4752712454099972e+07  2.4752566037403528e+07  2.4752432058397807e+07  2.4752654372177038e+07  2.4752321139734823e+07  2.4752368088611960e+07  2.4752628020362645e+07  2.4752346662387408e+07  2.4752382752648953e+07  2.4752690138467707e+07  2.4752577838117473e+07  2.4788476516128547e+07  2.4752589543706074e+07  2.4752617625628252e+07  2.4752413350333411e+07  2.4752467828727491e+07  2.4752423561161656e+07  2.4752650269155905e+07  2.4752286818423741e+07  2.4752281306269441e+07  2.4752678096906558e+07  2.4752443504628837e+07  2.4752589684551232e+07  2.4752524223891027e+07  2.4752447403639127e+07  2.4752495939713687e+07  2.4752460172697868e+07  2.4752654222120956e+07  2.4752818752144001e+07  2.4752685874523886e+07  2.4752640145681608e+07  2.4752479034923274e+07  2.4752400465747140e+07  2.4752379535669293e+07  2.4752613687114693e+07  2.4752328866577268e+07  2.4752542880139787e+07  2.4752414874243990e+07  2.4752686755703740e+07  2.4752507308501203e+07  2.4752655082295574e+07  2.4752624861700710e+07  2.4752640967259184e+07  2.4752380110804789e+07  2.4752499827136330e+07  2.4752460177740447e+07  2.4752461149405926e+07  2.4752543885079358e+07  2.4752617538714625e+07  2.4752517962220717e+07  2.4752289327048078e+07  2.4752373775031447e+07  2.4752332205873389e+07  2.4752303132863808e+07  2.4753068559788793e+07  2.4752364668989059e+07  2.4752532649482585e+07  2.4752455580470994e+07  2.4752490642633740e+07  2.4752469279593699e+07  2.4752482582373578e+07  2.4752473812407691e+07  2.4752392353383046e+07  2.4752453102248833e+07  2.4752453016758878e+07  2.4752406628563546e+07  2.4752665690507866e+07  2.4752641191940658e+07  2.4752677447058823e+07  2.4757461336712617e+07  2.4752359218994919e+07  2.4752411299232379e+07  2.4752645051568300e+07  2.4752618153791972e+07  2.4752635136120468e+07  2.4752736981625535e+07  2.4752302548673052e+07  2.4752375383021757e+07  2.4752683676351707e+07  2.4752522864567950e+07  2.4752542788014721e+07  2.4752317740252495e+07  2.4752602661401797e+07  2.4752628090293661e+07  2.4752565301169205e+07  2.4752660392020561e+07  2.4752434892061990e+07  2.4752556380080462e+07  2.4752846609298453e+07  2.4752744006326221e+07  2.4752391052117888e+07  2.4752661550438184e+07  2.4823883952599633e+07  2.4752667378979359e+07  2.4758328450136546e+07  2.4752669021727152e+07  2.4752685627161063e+07  2.4752650484383505e+07  2.4752344284408238e+07  2.4752535085940152e+07  2.4752540424719114e+07  2.4752328271843962e+07  2.4752277239806388e+07  2.4752461424350943e+07  2.4752565615869351e+07  2.4752429774991423e+07  2.4752507921732236e+07  2.4752409181288064e+07  2.4752387607913550e+07  2.4752389544113435e+07  2.4752407414239243e+07  2.4752520233925670e+07  2.4752584404649150e+07  2.4752523029707678e+07  2.4752781018227007e+07  2.4752533306375582e+07  2.4752523297311813e+07  2.4752537479581192e+07  2.4752699857074317e+07  2.4752678487435520e+07  2.4752611704071674e+07  2.4752653404968180e+07  2.4752441688555136e+07  2.4752466268653784e+07  2.4752524491056904e+07  2.4752275909728523e+07  2.4752908986401234e+07  2.4752467503020722e+07  2.4752684255957056e+07  2.4752581175827485e+07  2.4752426473025594e+07  2.4752302096144140e+07  2.4752659470657755e+07  2.4752448969466362e+07  2.4752465266810998e+07  2.4752644038277671e+07  2.4752469225333042e+07  2.4752607863731164e+07  2.4752453821105447e+07  2.4752407760035757e+07  2.4752514867930844e+07  2.4752502145497490e+07  2.4752539243143003e+07  2.4752734003433276e+07  2.4752343189226974e+07  2.4752634785898175e+07  2.4752484810870711e+07  2.4752404173002951e+07  2.4752355778144930e+07  2.4752697461266629e+07  2.4752288396869268e+07  2.4752421484768424e+07  2.4752397737533424e+07  2.4752399674900807e+07  2.4752384368439108e+07  2.4752335496644657e+07  2.4752663390203413e+07  2.4752346169986047e+07  2.4752641662143648e+07  2.4752501110707801e+07  2.4752460853750132e+07  2.4752685029666606e+07  2.4754228156327270e+07  2.4752402015432946e+07  2.4752579720575638e+07  2.4752396752839006e+07  2.4752339300214011e+07  2.4752720065292202e+07  2.4831470938004851e+07  2.4752471970096994e+07  2.4752426446344320e+07  2.4752427759017348e+07  2.4752279151083790e+07  2.4752701157189470e+07  2.4752667760256648e+07  2.4752574079054289e+07  2.4752584862195525e+07  2.4752617457700770e+07  2.4752599373262428e+07  2.4752641494612839e+07  2.4752490391246505e+07  2.4752369206827760e+07  2.4752562910264570e+07  2.4752397921234839e+07  2.4752289976685926e+07  2.4752637355410531e+07  2.4752343266546670e+07  2.4752624702687558e+07  2.4752314495552920e+07  2.4752445191216893e+07  2.4752428841437198e+07  2.4752401707499854e+07  2.4752507191988435e+07  2.4752455393237542e+07  2.4752472052249588e+07  2.4752479875864219e+07  2.4752535434145093e+07  2.4752481535401355e+07  2.4752470324102227e+07  2.4752638668696448e+07  2.4752367920341387e+07  2.4752317323303349e+07  2.4752303928977545e+07  2.4752386602254018e+07  2.4752673012679253e+07  2.4752366173291996e+07  2.4752705213600196e+07  2.4752577074834034e+07  2.4752651701440435e+07  2.4752498541346475e+07  2.4752610185484499e+07  2.4752644562600367e+07  2.4752577656674698e+07  2.4752601644444749e+07  2.4752289063567616e+07  2.4752448983697474e+07  2.4752531257903092e+07  2.4752700943062399e+07  2.4752394385245375e+07  2.4752357985115226e+07  2.4752304661570616e+07  2.4752559104464769e+07  2.4752759650429580e+07  2.4752343104933139e+07  2.4752749833623469e+07  2.4752459475578506e+07  2.4752471568930324e+07  2.4752450242789213e+07  2.4752706385177936e+07  2.4752633167178594e+07  2.4752612855473176e+07  2.4752654763812244e+07  2.4752377645591140e+07  2.4752364062617697e+07  2.4752393350337178e+07  2.4752476140971322e+07  2.4752478634379070e+07  2.4752470537605394e+07  2.4752624605134100e+07  2.4752316128087603e+07  2.4752791653474290e+07  2.4752356835072432e+07  2.4752474105969924e+07  2.4752750633611947e+07  2.4765003275947165e+07  2.4752498866415784e+07  2.4752518014223985e+07  2.4752536366130017e+07  2.4752638325137667e+07  2.4752615890654862e+07  2.4752653929232437e+07  2.4752719538980395e+07  2.4752516776680060e+07  2.4752424850383364e+07  2.4752494659848325e+07  2.4752527868574169e+07  2.4752590241598319e+07  2.4752762589590807e+07  2.4752415527902670e+07  2.4752579161203120e+07  2.4752297012373798e+07  2.4752501695873689e+07  2.4752491140300717e+07  2.4752675449411865e+07  2.4752576775140423e+07  2.4752399456081532e+07  2.4752472663109191e+07  2.4752439016163934e+07  2.4752859314321309e+07  2.4752446798528396e+07  2.4752484232860267e+07  2.4752500530332744e+07  2.4752699310312405e+07  2.4752471661714938e+07  2.4752484677243691e+07  2.4752464322378740e+07  2.4752415393896118e+07  2.4752403400936645e+07  2.4752414310236838e+07  2.4752469577535633e+07  2.4753006393847644e+07  2.4752325475944139e+07  2.4752920683214404e+07  2.4752316300263345e+07  2.4752474885237712e+07  2.4752413077573046e+07  2.4752637363514762e+07  2.4752424794151228e+07  2.4752374205289233e+07  2.4752433444124468e+07  2.4752647034437526e+07  2.4752648143307019e+07  2.4752641764101159e+07  2.4752547244548295e+07  2.4752587763380129e+07  2.4752697732188974e+07  2.4752656053184871e+07  2.4752642645587113e+07  2.4752673979563251e+07  2.4752636385573380e+07  2.4752470729386181e+07  2.4752405784823377e+07  2.4752558195864845e+07  2.4752665211801972e+07  2.4752659188716035e+07  2.4752543232455749e+07  2.4752473864885900e+07  2.4752472028136004e+07  2.4752437026576508e+07  2.4752858082520507e+07  2.4752664268114522e+07  2.4752632297460008e+07  2.4752474180779696e+07  2.4752825217068959e+07  2.4752707263606731e+07  2.4754003825736668e+07  2.4752821453916512e+07  2.4752351897382069e+07  2.4752707826207343e+07  2.4752489498392075e+07  2.4752369078146327e+07  2.4752433159846075e+07  2.4752643847676754e+07  2.4752274896766998e+07  2.4752281307031091e+07  2.4752672950607099e+07  2.4752379334300548e+07  2.4752394583600156e+07  2.4752621101945437e+07  2.4752331066844538e+07  2.4752590363215327e+07  2.4752418321144752e+07  2.4752685131554898e+07  2.4752695438653283e+07  2.4752505255686637e+07  2.4752293689529791e+07  2.4752769331422351e+07  2.4752699531980731e+07  2.4752659130212873e+07  2.4752516616929479e+07  2.4752594200946957e+07  2.4752281509141471e+07  2.4752306343597893e+07  2.4752388949289046e+07  2.4752865233030602e+07  2.4752680197680894e+07  2.4752549470707197e+07  2.4752554507503539e+07  2.4752571896758221e+07  2.4752614635634810e+07  2.4752608159048632e+07  2.4752620490550190e+07  2.4752629756740276e+07  2.4752533137319449e+07  2.4752575900822002e+07  2.4752397878758542e+07  2.4752627879807856e+07  2.4752588770418506e+07  2.4752490475830428e+07  2.4752646609885514e+07  2.4752739483819760e+07  2.4752541090514034e+07  2.4752512789562330e+07  2.4752591840830870e+07  2.4752573003107082e+07  2.4752466733416546e+07  2.4752540892448373e+07  2.4752629161893647e+07  2.4752423298730642e+07  2.4752401810909409e+07  2.4752399917894620e+07  2.4752476658041742e+07  2.4752368329778999e+07  2.4752427037060414e+07  2.4752419024680715e+07  2.4752313546926469e+07  2.4752432579407241e+07  2.4752597049797326e+07  2.4752553289202418e+07  2.4752676529896017e+07  2.4752683808926497e+07  2.4752648695546858e+07  2.4752476687277988e+07  2.4752660191913489e+07  2.4752402126402371e+07  2.4752390024843533e+07  2.4752585208734419e+07  2.4752293790618084e+07  2.4752782793822750e+07  2.4846700666125812e+07  2.4752480035011131e+07  2.4752334416554667e+07  2.4752509339575071e+07  2.4752406683376011e+07  2.4752730077808537e+07  2.4752350099763431e+07  2.4752390735856287e+07  2.4752435120858092e+07  2.4752441197407041e+07  2.4752454722802229e+07  2.4752672279008906e+07  2.4752695597100165e+07  2.4752587453856736e+07  2.4752599712671712e+07  2.4752422513573479e+07  2.4752671601696711e+07  2.4752721478601113e+07  2.4752715661380470e+07  2.4752622760890804e+07  2.4752439363631561e+07  2.4752681164747000e+07  2.4752549703649331e+07  2.4752500902301356e+07  2.4752716244557079e+07  2.4752475634785108e+07  2.4752433405093715e+07  2.4789088623969905e+07  2.4752474917993922e+07  2.4752553447870437e+07  2.4752675837168362e+07  2.4752650664869353e+07  2.4752457975425240e+07  2.4752456599566389e+07  2.4752526167984914e+07  2.4808099524821348e+07  2.4752713015950982e+07  2.4752654592913788e+07  2.4752533132085674e+07  2.4752646057599779e+07  2.4752372009745497e+07  2.4752657358634915e+07  2.4752524728471573e+07  2.4752576069356486e+07  2.4752491399211552e+07  2.4752328524704833e+07  2.4752344896293864e+07  2.4752447043764029e+07  2.4752467595011052e+07  2.4752499690773003e+07  2.4752369654471222e+07  2.4752443279672671e+07  2.4752593426376715e+07  2.4752681539203186e+07  2.4752400121282525e+07  2.4752453563104589e+07  2.4752513392790578e+07  2.4752294618189566e+07  2.4804443355992984e+07  2.4752535423119165e+07  2.4752606201767512e+07  2.4752411124159940e+07  2.4752548918981973e+07  2.4752656044821709e+07  2.4752382812969431e+07  2.4752560481120117e+07  2.4753075873941287e+07  2.4752351592368823e+07  2.4752463147528559e+07  2.4752514485418256e+07  2.4752493196518097e+07  2.4752325299840920e+07  2.4752652517385468e+07  2.4752742372784212e+07  2.4818215969539605e+07  2.4752678978127252e+07  2.4752525021063738e+07  2.4752281856635202e+07  2.4752596339524519e+07  2.4752461220109902e+07  2.4752522355440564e+07  2.4752395972065188e+07  2.4752413891883038e+07  2.4752421314928353e+07  2.4752624982229680e+07  2.4752311369488172e+07  2.4752306132505558e+07  2.4752296571834829e+07  2.4752449122844014e+07  2.4752679358373024e+07  2.4752559919314310e+07  2.4752614012105301e+07  2.4752379756694950e+07  2.4752486603480246e+07  2.4752577718194328e+07  2.4752633158487573e+07  2.4752360269704897e+07  2.4752570817398336e+07  2.4752692056711290e+07  2.4752664669400543e+07  2.4752504788206141e+07  2.4752534870450709e+07  2.4752511875911471e+07  2.4752835114404865e+07  2.4752685482066493e+07  2.4752672311883707e+07  2.4752500304592043e+07  2.4752328655783888e+07  2.4752790804232996e+07  2.4752342760769024e+07  2.4752523326662052e+07  2.4752431674584273e+07  2.4752437102980714e+07  2.4752639027919434e+07  2.4752638765564043e+07  2.4752403724310640e+07  2.4752494414654333e+07  2.4752644780201908e+07  2.4752297317809127e+07  2.4752392426577527e+07  2.4752652181528661e+07  2.4752648870759964e+07  2.4752494389627889e+07  2.4752469481468488e+07  2.4752470168286670e+07  2.4752453037069015e+07  2.4752275738613456e+07  2.4752657203200217e+07  2.4752679629390240e+07  2.4752561707968328e+07  2.4752765690547381e+07  2.4752502247199923e+07  2.4752691319703452e+07  2.4752491881277524e+07  2.4752516030312095e+07  2.4752603392282717e+07  2.4752620981006611e+07  2.4752553768755283e+07  2.4752379284703281e+07  2.4752690341619752e+07  2.4752399436904732e+07  2.4752401874715678e+07  2.4752405335096400e+07  2.4752408416542508e+07  2.4752443093294855e+07  2.4752451128600676e+07  2.4752535225326080e+07  2.4752395791997768e+07  2.4752306647708815e+07  2.4752477223817587e+07  2.4752480856033273e+07  2.4752438338831492e+07  2.4752732229544334e+07  2.4752626739856236e+07  2.4752313463070095e+07  2.4752335717246924e+07  2.4752456845895678e+07  2.4752394839333400e+07  2.4752355676649638e+07  2.4752513424099248e+07  2.4752496577896308e+07  2.4752341021633867e+07  2.4752464156790305e+07  2.4752481495320410e+07  2.4752537454490710e+07  2.4824963303036205e+07  2.4753019463553429e+07  2.4752605428941667e+07  2.4752399793568410e+07  2.4752471190677397e+07  2.4752475759233564e+07  2.4752464741104167e+07  2.4752402356732249e+07  2.4752402001599472e+07  2.4752283863204442e+07  2.4752884362654280e+07  2.4752761709645707e+07  2.4752529178685002e+07  2.4752530377109520e+07  2.4752552344985716e+07  2.4752344928484656e+07  2.4752332646250796e+07  2.4752373048698045e+07  2.4752681826056264e+07  2.4752661618788220e+07  2.4752596682069898e+07  2.4752674385541894e+07  2.4752712522840552e+07  2.4752671630659845e+07  2.4752740453680173e+07  2.4752670505981911e+07  2.4752414688380081e+07  2.4752433947647680e+07  2.4752419721257649e+07  2.4752495528988685e+07  2.4752642395283755e+07  2.4752544239687584e+07  2.4752356107080884e+07  2.4752463265127145e+07  2.4752664673255682e+07  2.4752465026603498e+07  2.4752646675320301e+07  2.4752468674349338e+07  2.4752414329045553e+07  2.4752674042873524e+07  2.4752457633821294e+07  2.4752657010050636e+07  2.4752642968825802e+07  2.4752642014708251e+07  2.4752640672448874e+07  2.4752562398206905e+07  2.4752570756459802e+07  2.4752645252613399e+07  2.4752380742320310e+07  2.4752514070881803e+07  2.4752508837123424e+07  2.4752461838509690e+07  2.4752285253774811e+07  2.4752295030179247e+07  2.4752286921983577e+07  2.4752402274107549e+07  2.4752566111405998e+07  2.4752492602718350e+07  2.4752495291631773e+07  2.4752603261638653e+07  2.4752516267595422e+07  2.4752387601160295e+07  2.4752377789675575e+07  2.4752422072073750e+07  2.4752451991214897e+07  2.4752431654864997e+07  2.4752349047084674e+07  2.4752332075794034e+07  2.4752485374988563e+07  2.4752368681619491e+07  2.4752346297351360e+07  2.4752337670783266e+07  2.4752763504939754e+07  2.4752619980033513e+07  2.4752347315046147e+07  2.4752706841864828e+07  2.4752382421152800e+07  2.4752402239429485e+07  2.4752370752843093e+07  2.4752649299310934e+07  2.4753117112652313e+07  2.4752278173077762e+07  2.4752277604082584e+07  2.4752659901559323e+07  2.4752288215852268e+07  2.4752403311985951e+07  2.4752721771586891e+07  2.4760815707109638e+07  2.4752711789437361e+07  2.4752429279879138e+07  2.4752327915715106e+07  2.4753533702500295e+07  2.4752641001521651e+07  2.4752324080722034e+07  2.4752823529386882e+07  2.4752514722357552e+07  2.4752277876313571e+07  2.4752636796699475e+07  2.4752497501418255e+07  2.4752443115653533e+07  2.4752416625805400e+07  2.4752363404783573e+07  2.4752647183282372e+07  2.4752316596422520e+07  2.4752768967135500e+07  2.4752569997135069e+07  2.4752844525103785e+07  2.4752448632914208e+07  2.4752423355412737e+07  2.4752773457763482e+07  2.4752466552229427e+07  2.4752680215392210e+07  2.4752383914819308e+07  2.4752580115473177e+07  2.4752439094165981e+07  2.4752418447112273e+07  2.4752557158733170e+07  2.4752453493076578e+07  2.4752313681976985e+07  2.4752642486395303e+07  2.4752583660433192e+07  2.4752538513367321e+07  2.4752728357486960e+07  2.4752320136773560e+07  2.4752511291630376e+07  2.4752407569632135e+07  2.4752383685995717e+07  2.4752605284375198e+07  2.4752628930149335e+07  2.4752627452092744e+07  2.4752415540628340e+07  2.4752429122359309e+07  2.4752439353298038e+07  2.4752562575846210e+07  2.4752552956801768e+07  2.4822551217690047e+07  2.4752896622008633e+07  2.4752686069702998e+07  2.4752648445152104e+07  2.4752695629943389e+07  2.4752731360138714e+07  2.4752701437755879e+07  2.4752437092740592e+07  2.4752568120057728e+07  2.4752547307381388e+07  2.4752395902403701e+07  2.4752411282657731e+07  2.4752405484269578e+07  2.4752621954216436e+07  2.4752620906616680e+07  2.4752638011362348e+07  2.4752726642429680e+07  2.4752309645549260e+07  2.4752305766215801e+07  2.4752481197032180e+07  2.4752635122746628e+07  2.4752632655394927e+07  2.4752474190109555e+07  2.4752385561570585e+07  2.4752460645141274e+07  2.4752494530476835e+07  2.4752641779393680e+07  2.4752336334532335e+07  2.4752600327879976e+07  2.4752661142746545e+07  2.4752667992155328e+07  2.4752679636229508e+07  2.4752645415900107e+07  2.4752583170460809e+07  2.4752656756254766e+07  2.4752545725194372e+07  2.4752282589630667e+07  2.4752484891031597e+07  2.4752484169798359e+07  2.4752557635870069e+07  2.4752425121580999e+07  2.4752307815420888e+07  2.4752471760780293e+07  2.4752468663522746e+07  2.4752470361127231e+07  2.4752472216308855e+07  2.4752454984460689e+07  2.4752455722712860e+07  2.4752475263602231e+07  2.4752693765967123e+07  2.4752691594484799e+07  2.4752544555388667e+07  2.4752504387786806e+07  2.4752359549780693e+07  2.4752706595147431e+07  2.4752313846229203e+07  2.4752339223193780e+07  2.4752582822016194e+07  2.4752594943087410e+07  2.4752622965091560e+07  2.4752610630167812e+07  2.4752622080961555e+07  2.4752392516255554e+07  2.4752416198287819e+07  2.4752408414969824e+07  2.4752487599601686e+07  2.4752478970988452e+07  2.4752274462240372e+07  2.4752606940156225e+07  2.4752635208031222e+07  2.4752295341672003e+07  2.4752374590199556e+07  2.4752395968420330e+07  2.4752532945018165e+07  2.4752572742890630e+07  2.4752591084832441e+07  2.4752619657656584e+07  2.4752350328343127e+07  2.4752640963979475e+07  2.4752474959405012e+07  2.4752321688183084e+07  2.4752401432420980e+07  2.4752484236648541e+07  2.4752409630642969e+07  2.4757056830063649e+07  2.4752497436752718e+07  2.4752604645342976e+07  2.4752440421100017e+07  2.4752466348181523e+07  2.4752327511302024e+07  2.4752428184950303e+07  2.4752283598320909e+07  2.4752712280637771e+07  2.4752439872167535e+07  2.4752466509094898e+07  2.4752591440826930e+07  2.4752477555119693e+07  2.4752687207617156e+07  2.4752448204915669e+07  2.4752697755340669e+07  2.4752437148461711e+07  2.4752772012530271e+07  2.4752653134192415e+07  2.4752645576238476e+07  2.4752614585233793e+07  2.4752359143579505e+07  2.4752622068599965e+07  2.4752534165533837e+07  2.4752514784285791e+07  2.4752326173717439e+07  2.4752471704507723e+07  2.4752402978077989e+07  2.4752358235986069e+07  2.4752352