<?xml version="1.0"?>
<VTKFile type="UnstructuredGrid"  version="0.1"  >
<UnstructuredGrid>
<Piece  NumberOfPoints="3002" NumberOfCells="5870">
<Points>
<DataArray  type="Float64"  NumberOfComponents="3"  format="ascii">323455.6100285493 6048753.88242996 0  323455.6100285493 5954782.59950515 0  405920.1480513444 5954782.59950515 0  405920.1480513444 6048753.88242996 0  405920.1480513444 6001768.240967555 0  323455.6100285493 6001768.240967555 0  364687.8790399469 5954782.59950515 0  364687.8790399469 6048753.88242996 0  364687.8790399469 5996367.117560402 0  323455.6100285493 6025261.061698757 0  382226.6271443229 6022560.499995181 0  405920.1480513444 5978275.420236353 0  323455.6100285493 5978275.420236353 0  353897.8957397301 6022560.499995181 0  344071.7445342481 5954782.59950515 0  385304.0135456456 5954782.59950515 0  405920.1480513444 6025261.061698757 0  354379.8117870975 5975574.858532775 0  381582.8168806895 5978840.396198289 0  384950.2598624413 6001768.240967555 0  344643.0480768835 6003429.02033719 0  344071.7445342481 6048753.88242996 0  385304.0135456456 6048753.88242996 0  339717.0321562298 5986078.187627405 0  337515.036058786 5969821.016310448 0  368062.2614420265 6013076.224998265 0  368062.2614420265 6032044.774992097 0  393987.6142659165 5988729.699941677 0  405920.1480513444 6013514.651333156 0  392856.2821527076 6034589.119828064 0  393514.9611654527 5968369.338068204 0  339399.8087404341 6032061.482581838 0  323455.6100285493 6013514.651333156 0  374995.9462927963 5965504.865595459 0  354379.8117870975 6037976.901948514 0  338123.9088969378 6017031.529131207 0  367397.3120126425 5982072.559192053 0  351882.5752379905 5991998.990225234 0  376945.425450199 5991232.708824487 0  392265.0061656896 6013300.936254065 0  357029.7426706699 6006608.947964352 0  380093.6207558212 6036880.127749795 0  323455.6100285493 5966529.009870751 0  405920.1480513444 6037007.472064359 0  405920.1480513444 5966529.009870751 0  323455.6100285493 6037007.472064359 0  333763.6772813987 6048753.88242996 0  405920.1480513444 5990021.830601954 0  323455.6100285493 5990021.830601954 0  362879.3643765316 5966837.319094267 0  348367.6438548031 5965604.161682394 0  334493.1989038612 5996935.948935225 0  395068.5043068817 6023875.372615605 0  348216.0324377587 6013504.844950221 0  379305.9090074943 6011603.390019651 0  372523.5158233726 6003480.000732267 0  395435.2039568929 5999384.346358113 0  395612.080798495 5954782.59950515 0  333763.6772813987 5954782.59950515 0  395612.080798495 6048753.88242996 0  374995.9462927963 6048753.88242996 0  374995.9462927963 5954782.59950515 0  354379.8117870975 6048753.88242996 0  354379.8117870975 5954782.59950515 0  335074.5981535012 6007206.680367459 0  391925.2695590468 5978591.908877409 0  371969.1707190623 6022560.499995181 0  383872.162544519 5969415.106147043 0  358038.7139835292 5984533.09712744 0  369699.869182786 5973102.2359358 0  369841.9126663716 6041099.453006387 0  343176.7440329155 5994428.220622956 0  362933.5332293962 6024385.235173292 0  330640.1760208776 5984148.625419154 0  348684.7494355051 5983110.856817525 0  399094.9690929834 6007537.420809742 0  345447.6324516311 5974162.84917082 0  332859.7749513451 6039150.972778062 0  344517.044630671 6024057.945416138 0  332973.1214415312 6025037.914505113 0  341428.0126373461 6040493.820728126 0  385874.264691618 5992757.40885039 0  350337.3662538711 6030387.535304286 0  359887.2373602368 6016186.250094838 0  377097.8989316926 6029115.217702097 0  338917.7109078235 5961484.016839475 0  329495.5261590715 5972402.215053552 0  336644.7280634616 5978216.610794215 0  330688.6715098422 5962480.256438018 0  359899.8039476132 6031963.415584587 0  399746.255941904 6030426.523907755 0  385511.6875144855 6030368.508996127 0  387377.735783329 6040763.821024337 0  398832.192399829 5974431.100387635 0  387992.9498994246 5962432.032572681 0  405920.1480513444 5984148.625419153 0  364925.7641745284 6005782.953640081 0  361769.877068089 6041226.651684469 0  398452.9199001931 6040850.732439541 0  398946.6205243983 5962252.502309519 0  362305.5577564609 5975984.89789681 0  356822.8065216601 5998470.186307689 0  386900.7115926162 5984820.732438302 0  329528.0119279922 6032067.230024892 0  331139.6939744562 6013813.572928222 0  398457.5876798834 5982541.698799337 0  405920.1480513444 6019387.856515957 0  398685.5166750694 6017257.578706384 0  348587.9424884976 6042755.309150081 0  369841.9126663716 5960143.732550304 0  380149.979919221 5960143.732550304 0  359533.8454135222 5960172.384722514 0  377147.8814772839 5972649.581024994 0  341756.3455763521 6010124.092444684 0  355615.8176864882 5966311.193813809 0  369144.4338274571 5989807.770003954 0  375185.9047422862 5983510.422041401 0  323455.6100285493 6007641.446150355 0  391856.7960121195 6005888.565703365 0  371978.0245217044 5996361.134308098 0  405920.1480513444 5995895.035784755 0  378877.1880032702 5998073.745937059 0  359056.6617417652 5991643.489540118 0  399278.8743430426 5993436.466134224 0  386116.8775939071 6009922.097099247 0  323455.6100285493 6019387.856515957 0  388994.7833819839 6019826.789191471 0  348897.6207366391 5998116.079250046 0  345456.3301153719 6035064.814295612 0  323455.6100285493 6042880.677247159 0  334124.3013408988 5990072.953472659 0  377097.8989316926 6018059.782440464 0  323455.6100285493 5995895.035784755 0  342871.8474798963 5980154.238874755 0  373596.9793292385 6035659.183886081 0  380149.979919221 6048753.88242996 0  376327.9292813152 6042294.581731233 0  329163.3548105369 6004704.843558955 0  350303.9432136903 6007093.032074522 0  383982.6552804571 6015912.664375832 0  345515.490569988 5988567.439252969 0  379019.812877927 6004678.052169549 0  365541.9137639466 6018750.691894444 0  349225.7781606728 5954782.59950515 0  352493.3399767278 5960815.406895458 0  363683.8130458911 5986976.225872464 0  386666.791301207 5975084.583584332 0  368937.6553346639 5966171.092344863 0  400003.9882214358 5968352.273777306 0  328776.0063842635 5992958.433193355 0  339958.4428758043 5999572.344589042 0  354577.7732363954 6012555.454074449 0  328609.6436549741 6048753.88242996 0  382053.0280278458 5988228.496807038 0  330708.6817934912 5978212.973348036 0  372084.7734679543 5978495.086505585 0  358568.2738174705 5971419.415228934 0  328931.2672829705 5998832.905089681 0  323455.6100285493 6031134.266881558 0  405920.1480513444 5972402.215053552 0  405920.1480513444 6031134.266881558 0  323455.6100285493 5972402.215053552 0  405920.1480513444 5960655.804687951 0  323455.6100285493 5960655.804687951 0  405920.1480513444 6007641.446150355 0  323455.6100285493 5984148.625419153 0  405920.1480513444 6042880.677247159 0  346648.7613474604 5960023.05127712 0  342415.3891593561 5966358.988213831 0  350507.6510228226 5971111.740321856 0  391773.9667214506 5994456.117700323 0  338875.8905424621 6026088.827345025 0  361429.1735454847 6010511.262533597 0  389395.7028803263 6025805.543023561 0  392895.6464692951 6043315.288173481 0  332846.8296575367 6019296.633131165 0  373337.4404588729 6009693.515402478 0  336544.3064612215 6043648.151399015 0  348610.2411382072 6019567.839754772 0  381943.4597763228 6042183.394750732 0  355630.0631288611 6028071.82801846 0  363941.5238882306 6035967.852698964 0  328179.67203552 6022271.326978176 0  401066.2857736665 5998807.415073814 0  344387.1099621175 6029612.545574771 0  393435.2235156003 5960233.556458537 0  400735.9970493424 6022675.638064924 0  393708.5772019727 6029179.837160029 0  400609.0696943338 5987857.851798974 0  361753.6614662939 6001152.171757337 0  400766.1144249197 6048753.88242996 0  353363.0524357285 6002630.165620538 0  343248.328463803 6018790.640008039 0  356419.8105951758 6043365.392189237 0  390234.385899412 6000759.497967276 0  368336.1168551637 6000220.532318851 0  328609.6436549741 5954782.59950515 0  387520.8298169724 6035372.992507171 0  400588.0280660195 6035823.299583429 0  329021.6598427091 6043194.252697862 0  393371.710206733 5983576.325812268 0  393638.9721728675 5973623.513063556 0  371727.9212466564 6017113.044457142 0  364687.2762977295 5959941.212693035 0  374995.9462927962 5960346.83186599 0  369841.9126663716 5954782.59950515 0  400766.1144249197 5954782.59950515 0  338917.7109078234 5954782.59950515 0  369841.9126663716 6048753.88242996 0  359533.8454135222 5954782.59950515 0  390458.0471720704 6048753.88242996 0  338917.7109078234 6048753.88242996 0  390458.0471720704 5954782.59950515 0  359533.8454135222 6048753.88242996 0  380149.979919221 5954782.59950515 0  349225.7781606728 6048753.88242996 0  339867.4956514095 6005339.817053361 0  333737.9460226952 6002130.523287664 0  336955.8140048417 6012008.440073739 0  377097.8989316926 6023232.32559834 0  371748.9790486701 6028016.629988787 0  338146.5171983215 5993298.164761053 0  355016.8390227688 6017610.913088997 0  393953.1528190996 6018968.416019509 0  335185.8133477239 5965142.63403323 0  328616.6041642396 5967263.80307608 0  380314.9487662361 5965460.362415641 0  354622.8993466098 6032976.142863722 0  328521.4725131759 6027215.026914048 0  334465.0783479523 6034070.534389696 0  328123.6212682287 6009699.206425843 0  381889.5169855529 5973936.741901617 0  359122.3484437474 6036790.002992895 0  386341.6533148278 5979963.279841923 0  400798.2159679119 6012477.871311778 0  388538.3765260249 5967461.292146791 0  340833.8784183678 5975728.708105717 0  355307.6239213505 5988552.151815021 0  362181.4274823388 5981261.937800813 0  353784.0322742948 5981044.538811012 0  358045.1698423899 5978741.391518688 0  328423.7350325213 6036912.015930048 0  366897.6876966125 6027277.723668203 0  347355.1745641421 5978532.307510624 0  376820.5060332146 5979033.270735624 0  349378.1778589479 6024378.632814493 0  327189.2282939323 6016451.253924556 0  338433.8773236172 6036753.902881841 0  350141.9760340559 5987605.90026687 0  363794.7083927878 5991713.491814731 0  350325.1285660182 6035273.515460094 0  382355.9358007369 5983507.499638396 0  327107.0747437811 59811
[...]
<PointData  Scalars="f_47234-0"> 
<DataArray  type="Float64"  Name="f_47234-0"  format="ascii">2.0954556979185622e+07  2.4184598143435895e+07  1.9872638947213601e+07  1.7415829456062756e+07  1.8813776326535631e+07  2.2539216222469356e+07  2.2230190547178686e+07  1.9089516729778856e+07  2.1258952129692733e+07  2.1947429180797834e+07  1.9287340886563461e+07  1.9374241883703161e+07  2.3315612555226244e+07  2.0624292840812184e+07  2.3124006820688229e+07  2.1497366203047417e+07  1.8341542042874977e+07  2.1964347155944806e+07  2.0946905913273327e+07  1.9795700338433035e+07  2.1734489218541954e+07  1.9976789294888780e+07  1.8265257341588046e+07  2.2236386253639601e+07  2.2940663422504559e+07  2.0240592848064419e+07  1.9524956808953103e+07  1.9716169475416366e+07  1.8623546943243422e+07  1.8468561009321023e+07  2.0423751333914254e+07  2.1079066959591392e+07  2.2259214266960647e+07  2.1666297312552709e+07  1.9896155846913483e+07  2.1630480571123090e+07  2.1507777814222991e+07  2.1702311655443825e+07  2.0779606008118697e+07  1.9150722455843005e+07  2.1184829341668583e+07  1.8894465620811690e+07  2.3778439346002597e+07  1.7866352001849554e+07  1.9601878160591532e+07  2.1484997577084552e+07  2.0475848386110272e+07  1.9076649721099131e+07  2.2878126107942566e+07  2.1952565478982929e+07  2.2548521128792699e+07  2.2219191134073861e+07  1.8765053038728908e+07  2.1335376007019300e+07  1.9728325071098402e+07  2.0465478811108820e+07  1.9309104579231247e+07  2.0687588088672463e+07  2.3660206140035793e+07  1.7859865935734671e+07  1.8656500626035187e+07  2.1920508337521102e+07  1.9516149527888894e+07  2.2614784127091184e+07  2.1962749038173683e+07  2.0180978368959688e+07  1.9678321939561475e+07  2.1146515020571273e+07  2.1678945674941674e+07  2.1635180635537613e+07  1.9149050016564917e+07  2.1942967405899961e+07  2.0017498583375938e+07  2.2735041630768757e+07  2.1948688675949920e+07  1.8985204713889491e+07  2.2369642859702785e+07  2.0991698304381270e+07  2.1113743445880074e+07  2.1609857879125390e+07  2.0495425983976658e+07  2.0087130973188605e+07  2.0476276187550593e+07  2.0581128076134183e+07  1.9270431568312168e+07  2.3176015546699446e+07  2.3251249215941526e+07  2.2652797694588691e+07  2.3565079872387465e+07  1.9865482710113093e+07  1.8371787654326864e+07  1.8912021407887205e+07  1.8482775897089839e+07  1.9847369211113244e+07  2.1129935307243776e+07  1.9233092709163625e+07  2.0827135607837453e+07  1.9476707934715092e+07  1.8010715071038913e+07  2.0170609799906660e+07  2.1752915204780955e+07  2.1435743392411809e+07  2.0329211754345268e+07  2.1474335664599460e+07  2.1960374670211740e+07  1.9658713883182008e+07  1.8504650820520155e+07  1.8819765524870180e+07  1.9997921740283493e+07  2.1940759691653017e+07  2.1614410809622444e+07  2.2259016858052123e+07  2.1401473921202760e+07  2.1676185142194126e+07  2.2212677086624950e+07  2.1279036984866358e+07  2.1166942654738437e+07  2.2395186035638757e+07  1.9333641630360141e+07  2.0907893316071536e+07  1.8930659583735865e+07  2.0320362245473966e+07  2.1527510470048621e+07  1.9288999375187393e+07  1.9489719853683017e+07  2.2115761006700192e+07  1.9112866564457599e+07  2.1698424015699830e+07  2.0558261297799803e+07  2.1214415503568772e+07  2.2394180809807301e+07  1.9615868703311607e+07  2.2698934709141437e+07  2.2273148462024875e+07  1.9192882449899863e+07  1.8453219079860777e+07  1.8836483201420180e+07  2.2231753867241047e+07  2.1468250910862017e+07  1.9412073534158655e+07  2.1944394560646206e+07  1.9995965251878478e+07  2.0120520648534052e+07  2.2857462773318823e+07  2.2519299157018233e+07  2.1510810390497282e+07  2.0716840095579129e+07  2.1813133187955175e+07  1.9921409268567882e+07  2.2546930056549232e+07  2.1963382369681038e+07  2.1090424631005097e+07  2.0716428840104841e+07  2.0542795838431194e+07  2.2957809101268593e+07  2.1439526026023917e+07  2.1955635501912076e+07  2.2384822470817178e+07  2.1738458083117697e+07  1.9489192260211281e+07  1.8118779197750770e+07  2.3550145801258281e+07  1.9730581216827258e+07  2.3989977159715604e+07  1.8719234358965438e+07  2.3085899718944509e+07  1.7630852069393802e+07  2.2824365396495689e+07  2.2820315117998648e+07  2.2250505638553884e+07  1.9651673656795334e+07  2.1347881489835836e+07  2.0779105532717500e+07  1.8915213076658923e+07  1.8175712910176925e+07  2.1773012964942399e+07  2.0094762848037671e+07  2.0584040317741185e+07  2.1058445487573404e+07  1.8622187912271921e+07  2.0254064656686693e+07  1.9560923445275683e+07  2.1865349607827254e+07  1.9069874737495262e+07  2.0912679526202351e+07  2.0733107019576650e+07  1.8616863958387181e+07  1.8630410512568027e+07  1.9391639053295035e+07  2.1189370749229781e+07  1.7634689762179654e+07  2.1461449043283131e+07  2.1353192613063928e+07  1.9624557567441963e+07  1.9544114537538156e+07  2.0957867006294966e+07  2.3927300383404609e+07  1.8663085845264666e+07  1.8116121265023533e+07  2.0953287686860189e+07  1.9922993026107512e+07  2.0221294998159301e+07  1.9879907139214482e+07  2.2090291076721322e+07  2.1791949611588001e+07  2.2073112430451792e+07  2.0239284862038061e+07  2.3394051658521250e+07  1.8871231388315838e+07  2.2407971797271062e+07  1.8075472531709224e+07  2.0228697448262133e+07  2.1156812601785433e+07  1.9304756585844699e+07  2.1738478409228418e+07  1.9736475406016901e+07  2.1847639576401308e+07  2.2123934133845337e+07  2.1795376561707892e+07  1.9456144863045152e+07  1.9509834725197449e+07  2.2154741776715804e+07  2.0809174061332364e+07  1.8946411860698927e+07  2.3237749348495845e+07  2.3496895776672032e+07  2.1464917835290916e+07  2.0088988547945298e+07  2.1700534360821404e+07  2.1187955240862135e+07  2.2160812254401527e+07  2.1104110172797773e+07  1.9729593307553414e+07  2.0555318733021930e+07  1.8839432480015814e+07  2.0893026784553479e+07  2.2535454570128199e+07  2.1668849112221077e+07  2.1651134609978467e+07  2.1842236248338569e+07  2.1792227067603301e+07  2.1290265415469550e+07  1.9727691923859797e+07  2.2130208970753919e+07  2.1224590904716987e+07  2.0811644919115920e+07  2.2047855026671145e+07  2.0863306959700435e+07  2.1813288601928327e+07  2.1409454883376192e+07  2.0234990112368457e+07  2.0714759843807038e+07  2.3023246472768884e+07  2.2473416214837808e+07  2.2724909400591791e+07  2.0467909672775373e+07  2.1651864909046259e+07  2.1785069662441939e+07  2.1602641176346932e+07  1.8898586130884476e+07  1.9212694324016117e+07  1.9358386431899499e+07  2.3202923358016115e+07  2.2933830965095121e+07  2.0384856316669837e+07  1.9832488080778204e+07  2.1431191103559759e+07  1.9844104168478306e+07  2.1555548157855596e+07  2.1598645607962485e+07  2.0007785734769288e+07  2.0373746698906977e+07  2.1826026885427192e+07  2.2505959496303573e+07  2.1801846147747677e+07  1.8959007070137072e+07  1.9122556798890851e+07  1.9173826811183199e+07  1.9721520165826414e+07  2.2078436285294395e+07  2.1484140128326591e+07  2.2077807842317875e+07  2.1616949567520589e+07  2.0438890322340406e+07  2.1321669314764697e+07  1.8256570070602473e+07  1.9254436351278897e+07  2.0266777351326980e+07  2.2659005962868698e+07  1.9877896627628390e+07  1.9479381716552228e+07  1.8973865063975565e+07  1.8287628674627218e+07  1.9156366022775643e+07  1.9020940238887843e+07  2.1074046623975966e+07  1.8706016877080902e+07  2.3419852635662042e+07  2.3081489681422699e+07  1.9555180772779334e+07  2.2691301541686937e+07  2.2443117946074136e+07  2.3284301194995780e+07  1.9738556827394057e+07  1.7871806135684356e+07  1.7870553004702579e+07  2.3736463721945815e+07  2.0518464605328191e+07  1.9741063655000072e+07  2.0876647193701193e+07  2.0306265891346980e+07  2.3683616410374634e+07  1.8698309489012238e+07  2.1379957922540769e+07  1.9108650528296866e+07  1.9364858999487814e+07  2.0189665610691190e+07  2.0432733402772665e+07  1.9874440535028007e+07  2.0355802347934403e+07  1.8700447519769348e+07  2.1604150468409359e+07  2.1400901459590133e+07  2.1299375260043420e+07  2.0018008097429760e+07  1.9711560542378440e+07  2.1267712187688787e+07  2.3835215569266479e+07  1.7750800969917506e+07  2.2118025543482300e+07  1.9602296910416562e+07  2.0076017931756802e+07  2.2120072202572152e+07  1.8443848575769078e+07  1.8575385845516082e+07  1.8336787095942609e+07  2.0050121300005618e+07  2.0620256594219644e+07  2.1482580037349679e+07  2.1104089813234758e+07  2.0563692422888797e+07  2.1056671561578076e+07  2.1247271047685858e+07  2.1024389773573812e+07  1.9327518329870645e+07  2.0223038229179163e+07  1.9087140869903229e+07  2.1366297564674336e+07  1.9318388832757309e+07  2.1490956491574526e+07  2.1082295115305375e+07  2.1349770546178367e+07  2.1412630518419042e+07  2.1800886427197538e+07  2.1948621428402390e+07  2.1581942806448679e+07  2.0037865969089407e+07  2.1755940785619881e+07  1.8459020748443086e+07  1.9899557332932904e+07  1.9667742745947860e+07  2.2891849840837240e+07  2.1616043879020125e+07  2.0133114076594330e+07  1.9408296549912650e+07  1.9748143664885093e+07  1.8775844347952366e+07  2.1956801835663203e+07  2.0705899886725470e+07  2.0061084143302117e+07  1.8623179080994308e+07  2.0045388163266934e+07  1.9209440201520409e+07  2.2444227425294455e+07  2.2312167211077128e+07  2.2128163820491780e+07  2.1807694682096064e+07  2.1928824750094105e+07  2.1776297833261952e+07  1.9287623472657446e+07  1.9901286516290631e+07  2.2035590150346790e+07  1.8443628004109003e+07  2.1640605114620686e+07  2.1877922892383449e+07  2.3014136146065503e+07  2.0784922111939270e+07  2.1418190307400525e+07  1.9266397187249359e+07  1.8937625086466562e+07  2.2081766768335521e+07  2.2244586831381030e+07  2.3666021851967212e+07  2.2324941852271799e+07  2.0022920726080380e+07  2.1822115325348672e+07  2.2082245370729748e+07  2.0536367894520923e+07  2.2242482860921569e+07  2.0871278197303463e+07  2.1280165412238270e+07  1.9951920986656863e+07  2.0657033037699148e+07  1.8843139855354439e+07  1.9576816798175976e+07  1.9424638722794376e+07  2.0418424401992027e+07  2.1194333736261513e+07  2.1599341649676878e+07  1.9446444428270068e+07  1.9125438231221534e+07  1.8983180245226249e+07  1.9037080500987537e+07  2.1012224612526711e+07  2.0782123954175178e+07  2.0285679960954607e+07  2.0688979441360094e+07  2.3412337246991228e+07  1.9817633072103281e+07  2.0301521740727138e+07  2.1636734538846672e+07  2.0999394529714655e+07  1.9698378532253087e+07  1.8357569475947432e+07  1.7992821189578302e+07  1.8179162075482450e+07  2.2890738928677503e+07  1.9096567377401579e+07  1.9477643822112177e+07  1.8673050580487072e+07  1.8832009910734661e+07  1.8188391185888339e+07  1.9651513648906559e+07  1.9959225589614853e+07  2.1355421366893418e+07  2.1731258319637291e+07  2.2379876214086663e+07  1.9454315190901648e+07  2.1274812712048270e+07  2.1307887616976503e+07  1.9890463779920958e+07  1.9683906323448390e+07  2.1980207050911371e+07  2.0703457841680150e+07  2.3390327530224089e+07  2.1983504746581383e+07  2.0026497465449266e+07  2.1548163582240514e+07  2.2579239420185953e+07  2.2291287414281461e+07  2.2716559790387928e+07  2.1088771582501721e+07  1.9580283237199500e+07  1.9542669288909189e+07  1.9625060018794291e+07  2.1186503255386621e+07  2.2136715875919782e+07  2.1306780371903282e+07  1.8680607499538947e+07  2.0070398661602207e+07  2.2745189948863469e+07  2.0852990443999842e+07  2.0514562140274901e+07  2.2080295845611848e+07  2.3472269300145909e+07  2.2249730737560317e+07  1.9026929721717879e+07  2.0878232711476281e+07  2.1898132927057695e+07  1.9351076205579352e+07  1.8802528458895754e+07  2.1510207701558612e+07  1.9113326096910018e+07  2.1205884640079278e+07  2.1132967867960520e+07  2.2463392547181834e+07  2.1832516509035278e+07  1.9358701959366325e+07  2.1805777098723073e+07  2.1614322004403926e+07  1.8740257672214713e+07  1.9099814340021737e+07  2.0255156134222422e+07  2.1148916877195656e+07  2.2092953511253607e+07  2.2307374480574526e+07  2.2449836418382403e+07  2.1308586054218858e+07  2.0173697383834828e+07  1.9646450574819349e+07  2.0776060974142190e+07  1.9155433449660789e+07  2.2098432955420032e+07  2.1185577837412000e+07  1.8968874239024967e+07  2.1727883058741156e+07  2.0840121959007200e+07  2.2284392354223292e+07  2.2385378461049646e+07  2.2616865952351194e+07  1.9498144809350435e+07  2.1848866139793415e+07  2.1660026465947613e+07  2.1530846028942939e+07  2.2977987601173587e+07  1.9230981495815080e+07  2.1586916094674803e+07  1.9327955823231850e+07  2.2327054743825614e+07  2.1462692611198980e+07  2.2116752138955034e+07  2.1686564269149963e+07  2.1914445919568870e+07  2.0781479419851605e+07  2.0797671552462295e+07  2.0885173689691793e+07  2.2080525346936259e+07  2.1937063260964707e+07  2.1946745716416072e+07  2.0115377076895110e+07  2.0238123752816193e+07  1.9895612375555236e+07  2.1615948424071208e+07  2.0266779719186362e+07  2.1397308376013555e+07  1.9452156217728954e+07  2.2644188231956732e+07  2.2542469477646515e+07  2.2785633689745184e+07  2.0929334987899221e+07  2.1022671410692174e+07  1.7521755326019298e+07  2.0080978809333771e+07  1.9965478670466326e+07  2.0998102621891186e+07  1.8482971023921210e+07  1.9742640821898121e+07  2.0068142938691411e+07  1.9305571227763526e+07  2.4089132383888680e+07  2.4057541640260179e+07  1.8473181094193701e+07  2.0926839938554581e+07  2.1608554191983614e+07  2.1555352897722289e+07  2.1396159733846158e+07  1.9881896391454671e+07  1.8430296700183310e+07  2.1510434655754402e+07  2.3268143153995451e+07  2.1829410469609976e+07  2.1899363428467266e+07  2.1742352911978547e+07  1.8943318759029273e+07  2.0644582312369175e+07  2.0429886019870400e+07  1.7970495665777773e+07  1.7997640481778692e+07  1.8337096041575886e+07  1.8109425786620621e+07  2.2709646207171030e+07  2.2510322554860175e+07  1.9470744316806216e+07  2.1030465434059318e+07  2.0260989897405386e+07  2.1845732004804980e+07  2.1981353733927257e+07  1.9860048904153433e+07  1.9784294799684744e+07  1.8765167451759014e+07  1.9886052385144208e+07  2.1092062271039553e+07  1.8288469035566173e+07  1.9205103225640487e+07  2.0703768747471519e+07  2.2653116455225453e+07  2.2994823501764659e+07  2.1506404101301856e+07  1.8860430107959811e+07  1.8780434190504778e+07  2.2598597177901391e+07  2.0939359839534260e+07  2.0306475191509929e+07  2.1818524771950640e+07  1.8135233661661226e+07  2.3042746657517739e+07  2.2847125990129616e+07  2.2842191537138894e+07  1.7524251713789634e+07  2.2465530676708985e+07  2.1050276244885109e+07  2.0315341664492559e+07  2.0738758423306283e+07  2.2412945524097335e+07  2.2281765721190482e+07  2.2096948817757655e+07  2.1994941742672022e+07  2.2035739437647980e+07  1.9895265790143672e+07  2.1500733373718344e+07  2.1525877218835056e+07  2.1519173964165427e+07  1.9000535316601448e+07  1.9485598178727083e+07  2.0992046429393422e+07  2.0800557142414343e+07  1.9533433170299508e+07  2.2121497217723157e+07  2.2268882953442827e+07  2.2264687898366552e+07  2.2838936046970356e+07  1.9796196262746453e+07  1.8568101630120996e+07  2.2189511198902640e+07  2.3432800253747247e+07  1.9434982498249810e+07  1.8236465778751362e+07  1.9666289362909045e+07  2.3886497727497477e+07  1.7745381303927261e+07  1.9306874936086766e+07  2.3199499666773964e+07  1.8868451950463887e+07  2.0432993466446802e+07  2.0929773778751925e+07  2.0641012392728038e+07  2.1703712479960017e+07  2.1992551297333702e+07  2.1538719653938934e+07  2.1483799000323702e+07  2.2989357976780269e+07  2.2985043368799459e+07  2.3170733093582809e+07  2.0353283045556206e+07  2.0481881854888890e+07  2.0790107648455508e+07  2.1502022485609870e+07  2.1852136747121010e+07  1.8490544526107278e+07  1.8672993452742949e+07  2.1758188073127076e+07  2.1719492323341317e+07  2.0052526705923758e+07  2.0288723249267582e+07  2.0389107292295981e+07  2.1932966584567823e+07  1.9453177627015140e+07  1.9553912220034756e+07  1.9589605524028294e+07  2.2740884933242720e+07  2.1711099806228738e+07  2.1658177099579960e+07  2.1745965895296220e+07  2.0507286570116583e+07  1.8904753576266121e+07  2.1861432638244234e+07  2.1305399938462920e+07  1.9712840905658752e+07  1.9595074855840944e+07  1.9507145600133132e+07  1.8942995288596518e+07  2.1158361048741303e+07  2.0596709591349199e+07  2.0778263271034058e+07  1.9438960031942315e+07  2.0404725916423112e+07  1.8569761177232351e+07  2.1311980118664894e+07  2.1027596512539018e+07  2.1273569186671451e+07  1.8026871851210065e+07  2.1460204322161343e+07  2.0510610111471139e+07  1.9185999548004907e+07  2.1849427845640045e+07  2.0285194330487695e+07  2.2719614719213787e+07  2.1090361794314880e+07  2.1325532724143472e+07  2.3259518624485623e+07  1.8481655596258912e+07  2.0869727523072403e+07  1.8980421297472347e+07  2.1379041818534706e+07  2.0875980708553836e+07  1.9855545438077141e+07  2.1913211070503037e+07  2.1166629513881359e+07  2.1188773548773345e+07  2.2503604027312178e+07  1.9822128692763463e+07  1.8764924126271997e+07  1.9235979959697500e+07  1.8552956992182042e+07  1.8754674250615813e+07  1.8257483241000671e+07  1.8045530612819586e+07  1.9241892793744821e+07  1.9382477051095512e+07  2.1274438342576481e+07  1.9056757698168248e+07  1.9767598353383064e+07  1.9776606916743122e+07  1.9824327747473940e+07  2.1585120298210628e+07  1.8561731077592906e+07  2.1200849474362340e+07  2.1247493064843200e+07  2.1329843465058148e+07  2.1626799949802801e+07  2.1634123229221143e+07  1.8556514374053713e+07  1.8564930927678555e+07  1.8780648558680657e+07  2.2340537193612158e+07  2.2507580004545219e+07  2.0482846257722910e+07  2.1375333857249729e+07  1.9575146212868467e+07  2.1485740116480343e+07  1.9475995119076706e+07  1.9634566813511867e+07  1.9426224957758255e+07  1.9588678134353567e+07  2.2067426906645223e+07  2.0322465330527090e+07  1.8311781614344101e+07  2.0104467192068592e+07  1.8726911415059272e+07  2.1714045770665016e+07  2.1732354117181037e+07  2.1674461493502904e+07  2.0551477370493028e+07  2.1064764335311957e+07  2.1359284636854403e+07  1.9574260003243085e+07  2.1563695205282923e+07  2.1536755692793414e+07  2.3120875105102487e+07  2.2039506347917482e+07  2.0602053044997305e+07  2.0600478894964479e+07  2.0044697295153137e+07  1.9410427861366630e+07  2.2005680734364927e+07  2.0418318107363060e+07  2.0011224700834475e+07  1.9303827561820824e+07  2.1311242689067967e+07  2.1746688892996032e+07  2.0659446923157193e+07  2.1513509777906600e+07  2.0873766112907667e+07  2.3246020423738603e+07  2.3090251489341743e+07  1.8809869069926359e+07  1.8904258683434565e+07  1.9854062589727752e+07  2.3552651519621260e+07  2.3660670141368371e+07  2.3359372300982054e+07  1.9259759299019556e+07  1.9137503799120188e+07  1.9031239912921786e+07  2.0194543552376721e+07  2.0037741487326767e+07  1.9775754303500652e+07  2.2392911643085647e+07  1.9555856527394589e+07  1.9612913311211634e+07  1.9807887503295340e+07  2.1777632983105384e+07  2.0726801936099686e+07  2.2159372097140845e+07  2.1994775553584713e+07  2.1715007120277148e+07  2.1866706929484326e+07  2.1726666897332337e+07  2.1714946601839006e+07  2.1723122400777042e+07  2.1880435715905439e+07  2.2053546020278297e+07  2.3529690461421065e+07  2.0835617062567879e+07  2.1997731158823542e+07  2.1344307311303336e+07  2.0102585476678222e+07  1.8762933041390061e+07  1.8172881393617928e+07  2.2731084640363164e+07  2.2316180960113250e+07  2.2149957366749957e+07  2.1835655142175037e+07  1.9197809334163185e+07  2.0454940587244533e+07  2.3794170998222161e+07  1.9624258312116075e+07  1.7747067313813694e+07  2.3527176725756124e+07  1.8281374056980703e+07  2.0252690968470842e+07  2.0979892678180382e+07  1.9375371758813340e+07  2.1764927708902180e+07  2.3363346394458827e+07  2.1755996182691492e+07  1.8331072133896898e+07  2.0530119095002446e+07  2.0738855241653733e+07  1.9134783121337909e+07  2.3125676886032548e+07  2.0253489654845461e+07  2.3397828300730187e+07  1.9531761767790914e+07  2.2405370824239943e+07  1.9425282308473807e+07  2.2642122689963341e+07  1.9756889588331752e+07  2.1033624546032581e+07  2.1061001806576788e+07  2.1861439362320099e+07  1.9853919165297322e+07  1.9713726971831013e+07  1.9024939323239908e+07  1.8862877517758306e+07  1.9921218016925860e+07  1.9055306506315339e+07  1.7658014783100381e+07  2.0262294324390918e+07  2.0061750