<?xml version="1.0"?>
<VTKFile type="UnstructuredGrid"  version="0.1"  >
<UnstructuredGrid>
<Piece  NumberOfPoints="784" NumberOfCells="1320">
<Points>
<DataArray  type="Float64"  NumberOfComponents="3"  format="ascii">266913.131276 586512.314988 0  266738.13716 587762.325998 0  266363.132677 589012.328643 0  266175.641078 590169.601714 0  265666.575631 591040.7699119999 0  264875.64001 591687.766419 0  264900.636161 591845.049083 0  266088.14152 592012.3229499999 0  265561.959259 592661.17101 0  264288.136855 593037.368683 0  263865.194033 593999.8486949999 0  263850.641856 593236.729596 0  263625.634872 592756.525286 0  262689.574249 593299.848918 0  262475.636737 594003.0907310001 0  261934.554452 594340.929792 0  261725.631329 594932.094409 0  261729.256443 595728.498809 0  262138.136044 595012.330523 0  262288.141035 596262.333669 0  261488.994028 597511.480605 0  261234.15567 598316.338928 0  260815.635063 599014.863821 0  261400.643658 599389.7367680001 0  261322.963374 600022.185065 0  261119.455248 600931.061306 0  261607.436504 601293.0629359999 0  260807.446929 602089.899812 0  260025.642878 602988.868697 0  259613.135827 603937.3854499999 0  259050.643123 604100.987861 0  258411.880065 603988.6335979999 0  257764.357469 604449.872569 0  257971.239668 605320.429125 0  258041.396867 605740.635381 0  257188.143339 606987.394312 0  256038.141198 608112.3554550001 0  254788.141633 609087.4026939999 0  253588.140656 609812.362881 0  252338.135706 609737.4048949999 0  251088.138116 609787.404055 0  249963.12851 610287.399466 0  248613.130524 610462.365857 0  247363.132198 610687.407659 0  246113.130532 610837.411551 0  245832.347438 610918.209918 0  245016.946433 610958.5639439999 0  244313.129646 610762.372259 0  244400.622144 611378.093316 0  243939.669208 612460.8930899999 0  242960.649733 611984.892792 0  242170.381438 611919.647351 0  241888.122919 611112.375656 0  241393.380757 610467.6456149999 0  240594.157528 611306.369822 0  240525.621947 610804.648112 0  240363.123632 610512.3745050001 0  239113.123247 610262.374278 0  239813.12126 609037.412459 0  240588.122952 607812.368199 0  241013.119545 606625.9534560001 0  241454.373249 605724.888025 0  242238.120107 604687.3993 0  243088.121248 603462.362766 0  242860.319451 603007.3932640001 0  241563.116617 603812.361344 0  241778.400913 604327.642217 0  242059.837234 604824.879102 0  241475.620201 604923.2402390001 0  241462.182234 605449.881372 0  240906.219606 605674.888222 0  240241.856192 606891.125066 0  239891.734044 607841.012479 0  239048.653431 608724.889805 0  238118.054545 608974.895967 0  238888.111029 607337.406468 0  239738.119992 606212.362729 0  240288.12044 605687.4075229999 0  240380.212307 604729.521696 0  239347.309632 604603.204501 0  238888.112036 604387.408787 0  237913.11173 604687.401386 0  236784.172023 604499.882783 0  236883.408793 603717.08334 0  236154.933927 603595.565605 0  235688.103943 602912.369264 0  235763.108033 601662.366516 0  236363.110805 600412.35884 0  236738.107995 599162.356577 0  236525.607944 598482.2412899999 0  236138.109208 599362.357613 0  235725.063048 600325.4466510001 0  235091.948926 601408.5220979999 0  235188.10921 600312.366344 0  234375.602405 600833.9674270001 0  234663.109308 599912.358011 0  234138.105122 600062.365644 0  233955.307245 599029.561063 0  233338.103791 598387.401556 0  233988.09795 597862.356384 0  235138.101489 596637.3947750001 0  235563.1039 595387.392428 0  236513.103639 594212.356312 0  237163.10684 592987.3929869999 0  238313.103031 591862.3515540001 0  239513.107028 590812.3512640001 0  240638.102135 589787.387271 0  241463.109549 588587.378486 0  242294.489816 587443.735215 0  242913.101099 586512.341804 0  243544.066915 585474.859604 0  243040.448415 585184.975583 0  242438.10214 585337.38015 0  241313.102353 586562.339499 0  240538.107104 587787.382449 0  240114.641085 588588.939407 0  239388.100256 589437.382238 0  238188.104456 590512.346358 0  236938.100507 591362.349798 0  235813.10453 592537.396388 0  234864.502938 593178.7753880001 0  234463.097651 592862.357267 0  235113.0965 591662.3545979999 0  235713.101522 590412.346099 0  235777.688431 589976.7582779999 0  234943.583145 590706.265132 0  234462.482256 591490.2841159999 0  233801.497784 592112.940187 0  233388.099101 591787.394208 0  234013.093099 590437.393065 0  234776.217248 587148.7548100001 0  235163.093726 586562.3486189999 0  235313.098918 585483.229012 0  235250.59732 584662.298153 0  235588.093896 583337.379493 0  236329.432041 582199.858992 0  237188.096234 581462.3349939999 0  237463.088521 580212.335511 0  238350.592558 579057.652616 0  238591.415797 578574.847681 0  238313.094106 577612.328905 0  239229.696732 577695.769664 0  240195.161018 577513.008613 0  240614.996733 577149.8518770001 0  240663.091715 577412.332622 0  240288.092486 578662.334085 0  239942.357258 579508.095811 0  240438.100019 580212.3334220001 0  241338.095553 580387.375355 0  241238.099828 579137.369157 0  241788.097003 577887.370889 0  241983.554649 577241.9220939999 0  242054.178239 576927.8105029999 0  242588.100699 575737.366175 0  243149.324833 574898.583978 0  243695.278626 573919.517981 0  244268.494418 573724.8454239999 0  244995.134063 573930.2767810001 0  245417.314363 573391.601898 0  243450.599125 571859.479773 0  245776.797908 572599.8353060001 0  246779.639852 572973.285167 0  248034.741935 573186.082054 0  249413.10651 573162.3205520001 0  250496.922226 573271.1521899999 0  251613.105126 573237.3551319999 0  252421.824577 572846.032906 0  253256.245022 572580.4733130001 0  253739.471933 571960.9547369999 0  254174.511864 572149.8346569999 0  254484.944333 571684.194807 0  254384.108649 570891.346712 0  254344.002752 570218.26407 0  255025.609604 570829.0294979999 0  255715.005913 570489.264586 0  256218.846343 570774.828355 0  256834.349083 570508.5908 0  257390.092515 570014.308325 0  257624.431042 568493.478911 0  259355.811717 569380.021819 0  260033.372814 569617.066669 0  262679.741751 570320.699974 0  263289.115756 569524.817815 0  263463.114338 570512.301061 0  264638.198419 570687.3443539999 0  265058.220065 571334.378467 0  265447.561421 572077.90485 0  265488.125257 573137.3446020001 0  265131.937715 573963.293593 0  265432.389648 575093.068786 0  265638.122314 576338.029955 0  265750.630817 577371.8281319999 0  265738.570663 578561.9098850001 0  265875.630866 579139.630549 0  266213.129247 579862.311842 0  266563.130472 581112.314509 0  266238.135356 582362.310259 0  265938.12863 583612.320897 0  265738.131342 584762.3210189999 0  266875.638633 585365.358768 0  264018.7239399826 593650.4646671159 0  262236.3944351029 595831.1252656333 0  241846.246678 605206.1436625 0  240200.622106 608424.8903290001 0  240943.4862974102 610939.7757535663 0  236550.6094 599787.3577085 0  238528.1212051503 608102.9081793013 0  244413.4891967989 572609.5960859474 0  236382.0474488751 598808.3067022427 0  235369.601910944 600933.5380148316 0  235413.099011 591037.3503485 0  235446.2251831186 590266.6553871984 0  240475.5921005 578037.3333535 0  240413.173949154 577324.4280286073 0  240574.037899 606283.0066440001 0  263857.9179445 593618.2891454998 0  264153.4303974913 593343.916675058 0  242042.1833925 604946.7714812499 0  241650.3099635 605465.51584375 0  244613.6985165 572229.6575395 0  236631.8579695 598822.2989335 0  235140.029068 600860.444221 0  241767.7287175 604874.0596705 0  242140.15174975 604817.0853906251 0  234781.8558075 600573.1668855001 0  242091.167571125 604881.9284359375 0  234519.3558565 600373.162719 0  254604.8337712102 583989.0014118921 0  250699.5846056537 594617.3297041012 0  250540.4796469513 602258.2940568649 0  248483.7490186612 580334.7345534252 0  258549.2190328319 577893.951823392 0  257067.0067473103 590016.5327808241 0  243285.0921999099 596333.923437875 0  248333.1386145258 589098.0389905117 0  256142.8445072741 595883.3911551933 0  260245.1368072523 583315.2785712298 0  253472.3380211276 578932.2908163272 0  246432.3347504817 599884.5019511909 0  261555.9240922556 588041.186709004 0  247293.1100123104 605823.8307887657 0  246458.2798550911 593168.8646574575 0  252840.0183145193 588226.5564648228 0  249828.2874404451 584740.7888937403 0  255409.5660975206 600458.8956828594 0  260819.9733392385 574219.403683011 0  252584.2262054711 605722.6603825617 0  254049.8830611471 592547.4852571967 0  250015.4356193061 598425.2225922942 0  245872.072249477 577604.9761853142 0  262002.1583249522 579753.4663046852 0  257732.6630933878 586227.970805314 0  250242.5556457866 577017.3316409125 0  244921.6453001869 581816.6358421432 0  256520.3890639471 580904.824006648 0  240779.0970645865 599524.6679555867 0  257100.1829219198 574459.5922545703 0  239912.2630002034 595231.1172704464 0  244703.0875078634 590068.6945953515 0  242549.5490268674 592874.3693043783 0  251586.0465921376 581796.2215047925 0  246643.189997516 596527.447801719 0  251049.7658069622 591057.6752245198 0  253014.5731561695 596998.6601086652 0  238680.2197353724 584542.2309791476 0  259715.365803504 591937.1938619445 0  254097.157218761 575731.4494927844 0  246806.6408589328 586139.0877599345 0  246136.1179750556 602959.471719323 0  253520.7033332401 602835.180253843 0  244125.4295793909 607538.9817227355 0  252546.8895354472 599881.3279113505 0  258289.0983523553 600397.640191779 0  247518.7952199645 583037.3718217331 0  263140.3959879661 582529.2228421422 0  262894.8586894067 585442.3590432997 0  256968.6320599076 593040.7691844478 0  243573.0187527719 600218.2795730785 0  258888.5766127351 595139.7745218446 0  262588.7569809347 576734.8569237856 0  259318.4257992262 580601.2540325444 0  249963.3812725965 607065.7205847671 0  257494.5307999607 583482.5893534871 0  258906.4757205145 572278.8089438241 0  237751.446593475 587300.5805003279 0  255142.4708720699 604956.7580261135 0  258485.4978753244 597756.9250383095 0  255516.7820591553 587791.39641967 0  239758.4692108706 601926.8203218657 0  255873.0092222999 577739.5085867504
[...]
<PointData  Scalars="f_32-1"> 
<DataArray  type="Float64"  Name="f_32-1"  format="ascii">4.1240142982335250e+01  4.2571869947982954e+01  4.4628071320234369e+01  4.6491886253727664e+01  4.7846175206321540e+01  4.9897643949725968e+01  5.0574064685638177e+01  5.0958003906000030e+01  5.1033064453601327e+01  5.1849112991834510e+01  5.2412514035265318e+01  5.2149320246538224e+01  5.2196310423788475e+01  5.4593183180468984e+01  5.5983766108755319e+01  5.7152883492540397e+01  5.8601778189478075e+01  6.0030472321554733e+01  5.9916746869028707e+01  6.0425903397939727e+01  6.2719299869571863e+01  6.4479590951048536e+01  6.6419099320248137e+01  6.7432538305922918e+01  6.7990919976437965e+01  6.9351717297881862e+01  6.9743151880488497e+01  7.0524046759187527e+01  7.1942192159202051e+01  7.2760255056165590e+01  7.2931375178895124e+01  7.3327107635133046e+01  7.4375693608189238e+01  7.5272837302866776e+01  7.5445426500270059e+01  7.6364423878548891e+01  7.7649937897459282e+01  7.9018497190573541e+01  8.0012549551662630e+01  8.0820375698094765e+01  8.2035828836950529e+01  8.3177675721097970e+01  8.4190188667057214e+01  8.5069034744416896e+01  8.5845079511606016e+01  8.6006608766677502e+01  8.6418012492063696e+01  8.6956459251802684e+01  8.7395215891924636e+01  8.7605428480441418e+01  8.7652867515816155e+01  8.7697494671450457e+01  8.7673632920074226e+01  8.7756844215620887e+01  8.7991003382249431e+01  8.7972098065528840e+01  8.7974770825128999e+01  8.8074571106617682e+01  8.7815405848429023e+01  8.7056352761360998e+01  8.6226527299658599e+01  8.5544961673530892e+01  8.4468230640912950e+01  8.2718846778962359e+01  8.2507011240570407e+01  8.4692676395109373e+01  8.5255865025724489e+01  8.5383499363481107e+01  8.5540943314483442e+01  8.5761434709679563e+01  8.6049493939660564e+01  8.7115413662440062e+01  8.7540626552046092e+01  8.7809107704037686e+01  8.7873162953580973e+01  8.7573368505236559e+01  8.6940927522784477e+01  8.6335689677382959e+01  8.5723605753962687e+01  8.6133670730595512e+01  8.6454994105735224e+01  8.6883646643432570e+01  8.7000090557443542e+01  8.6997379697458115e+01  8.7048543056419490e+01  8.7025725512675422e+01  8.6744310277854765e+01  8.5847793505443576e+01  8.4354248790855252e+01  8.4197543892677601e+01  8.5700948257462031e+01  8.6351659298360048e+01  8.6544998552102626e+01  8.6402301503516824e+01  8.6499153717013726e+01  8.6345094236280104e+01  8.6339309182316583e+01  8.6144508966410314e+01  8.6062906828422044e+01  8.5768500749204676e+01  8.3475806983330529e+01  8.1042522660003698e+01  7.7888262775526130e+01  7.4862154244971421e+01  7.1961117326822844e+01  6.9616058913582549e+01  6.7843960131448711e+01  6.6297117656257313e+01  6.4623349854455412e+01  6.3134435836527558e+01  6.1238950272703704e+01  6.0535805139879422e+01  6.0913242992638594e+01  6.3896826161763499e+01  6.6168084121454868e+01  6.7068872976999245e+01  6.8004815602360068e+01  6.9684332363292299e+01  7.2072207394693805e+01  7.5038661236344183e+01  7.5935557679349273e+01  7.5945754205396682e+01  7.4605629892260993e+01  7.2127488192363288e+01  7.1708750875881648e+01  7.3919742987488434e+01  7.5450965463205875e+01  7.5990656752562927e+01  7.5997162115421958e+01  7.4341047425526753e+01  6.9496122021208322e+01  6.8778497865459229e+01  6.7732114990470635e+01  6.7166898594625167e+01  6.6254454387009758e+01  6.5090674523010591e+01  6.3705072044624906e+01  6.2387236355556013e+01  6.1185415393946606e+01  6.0664892473502341e+01  6.0362752117005257e+01  6.0226085512315457e+01  5.9837073611213022e+01  5.9724311717377915e+01  5.9737768793715141e+01  6.0231381727635011e+01  6.0920411057600582e+01  6.1034291849681487e+01  5.9878137824380396e+01  5.8624664435137241e+01  5.7431711528571832e+01  5.6697609778581615e+01  5.6375204154788833e+01  5.4856697822624504e+01  5.3459375527983362e+01  5.2180579631014204e+01  5.1786867183760435e+01  5.0610907839301277e+01  4.9136045271805187e+01  4.9323386087659500e+01  4.8698733647627549e+01  4.7853342465631236e+01  4.5956120575569720e+01  4.3756581806000952e+01  4.2367230020770727e+01  4.0780345239189245e+01  3.9449120548209947e+01  3.8161026768814686e+01  3.7429618091678357e+01  3.6968004511499949e+01  3.5929618467556992e+01  3.5300938901178945e+01  3.5226862091378763e+01  3.5111841860665841e+01  3.4553233891065410e+01  3.4057861202968930e+01  3.2954469521242004e+01  3.2077787551835463e+01  3.2743588416632846e+01  3.1127884796395691e+01  3.1140285197931327e+01  3.3029383128436493e+01  3.3096046704705550e+01  3.3264031453535388e+01  3.2873766928128944e+01  3.2360771368148619e+01  3.1941227399054565e+01  3.2039778318109995e+01  3.2586423774705452e+01  3.3360146940955929e+01  3.4144033669960749e+01  3.4955527352824213e+01  3.6000490442480000e+01  3.6432629266181905e+01  3.6943828332605598e+01  3.8300169790258884e+01  4.0279520881291475e+01  4.1208369206663889e+01  4.0760068653626313e+01  4.0690192094868237e+01  5.2343988021155113e+01  6.0166396149711957e+01  8.5057140098582963e+01  8.7497439629707728e+01  8.7960777465330366e+01  8.5131833406391578e+01  8.7784329587056845e+01  4.9112755786924602e+01  8.4961250168344336e+01  8.6508096371966701e+01  7.3365269591168726e+01  7.2545750783008813e+01  5.9911403077502513e+01  5.9747623764753776e+01  8.6653137619245413e+01  5.2344224539258590e+01  5.2180797643738607e+01  8.4775891078765014e+01  8.5319002903035241e+01  4.9111906293391797e+01  8.4041773382898327e+01  8.6508158061154703e+01  8.5410803331188717e+01  8.4626362638641993e+01  8.6466743731576116e+01  8.4702190696254007e+01  8.6466203927096316e+01  4.9293227584054584e+01  6.6862474708652030e+01  7.5755914230088379e+01  5.1704068919516729e+01  3.6613800722759052e+01  5.3417527545662573e+01  7.5047417223938453e+01  6.1383012204733866e+01  6.4336072032558121e+01  4.2011630395888908e+01  4.3283425669341675e+01  7.5490322759258845e+01  4.6543300350603495e+01  8.1956018096314736e+01  6.7644943733136998e+01  5.4811503800369593e+01  5.6549058774754940e+01  6.9034960867878937e+01  3.3684853532547294e+01  7.7924441286783349e+01  6.1646071431394013e+01  7.0856637336590424e+01  5.2185722906399675e+01  3.6863083840596872e+01  4.7283790185608858e+01  4.5203338046089470e+01  5.7605896455950834e+01  4.2969587799364447e+01  8.1145027678962961e+01  3.6626885522210429e+01  7.5633690360286508e+01  6.4963755958701242e+01  6.9934080675573881e+01  5.0613198651222540e+01  7.2508212247742662e+01  6.0713888450857638e+01  6.7969016067115788e+01  6.4812059809997564e+01  5.5718117975075572e+01  3.8666999516484850e+01  5.9740382160053599e+01  7.9717409723430194e+01  7.4497025666709902e+01  8.5449077138115499e+01  7.1239004277258871e+01  6.9495358419302676e+01  5.6260686789668156e+01  3.9497371630496026e+01  4.1589308129420665e+01  5.9529593903628481e+01  7.9012895028135517e+01  6.0895419574808876e+01  3.5125626877030690e+01  3.9145589357560532e+01  8.1120001718690276e+01  4.5192223519836610e+01  3.2039681634585058e+01  6.7670712392804830e+01  7.5786875014132846e+01  6.5229248817521437e+01  5.0078444587665224e+01  8.5215751791659372e+01  3.8601497050233519e+01  5.0824119364756633e+01  5.9923896705793162e+01  6.5425445800042894e+01  5.6393400611839269e+01  4.7077862143872977e+01  4.3658569230452819e+01  5.6634989234671323e+01  4.8030514175282200e+01  4.7840544208722584e+01  4.4556783121704278e+01  4.9515225066132679e+01  8.4504192891428559e+01  7.8447459768458728e+01  5.2982952408155690e+01  8.3087710612670136e+01  7.5745840127791382e+01  7.3957774169577903e+01  8.0461359783117004e+01  6.2559574790241122e+01  5.9063280483504521e+01  6.6444882953922189e+01  7.2315730243012197e+01  5.8007373556391052e+01  7.8232434709506322e+01  5.1042680437881813e+01  6.5551634913985112e+01  3.2513096984324591e+01  4.9559387400512485e+01  6.9001788091374365e+01  7.7379079065215308e+01  6.4181182426125460e+01  7.0907069688318785e+01  6.2439130039010131e+01  7.1496461262889554e+01  3.5788152601762178e+01  5.3498139362029917e+01  5.3299137022317502e+01  7.9729610984852783e+01  6.7527371176222999e+01  3.7498734853204127e+01  7.9282661611016493e+01  6.3611796078891167e+01  8.4302503122048208e+01  3.3362469205209777e+01  8.4738425620784582e+01  8.4669953763060647e+01  5.5293224119415832e+01  5.0940087766565057e+01  8.4741557820948628e+01  8.5748659994322580e+01  8.2906516318503932e+01  8.5137772895127441e+01  7.1459733020164208e+01  3.6082579719967846e+01  8.0767564393825580e+01  7.5776516437703677e+01  5.6160891123418402e+01  5.0516990176570509e+01  4.7200606076432905e+01  8.5465714923012627e+01  8.4665733520821462e+01  5.8372078718984142e+01  8.5845356538028156e+01  8.3680619854902531e+01  8.4179576266177435e+01  8.5911215237526122e+01  5.9791299684894355e+01  4.8975734936813176e+01  7.1085799173254287e+01  3.4139737342946013e+01  4.9008710188606145e+01  3.6701585506806921e+01  6.9110030490390372e+01  8.7257419881153069e+01  6.6662442747310010e+01  7.2770953233377909e+01  8.3398173012530364e+01  6.0038121245921630e+01  3.0907075867923293e+01  7.1996773104882081e+01  3.9488137601605246e+01  5.2282577245003829e+01  8.4889581894383440e+01  8.2906532866216040e+01  6.1965881673113323e+01  8.7263553612373912e+01  4.3932329399388557e+01  8.5437209270176425e+01  6.3828143011089367e+01  3.2484264720104164e+01  3.6245817738120770e+01  3.7312782408567443e+01  7.2524559847423049e+01  8.1792918711890422e+01  8.1083269093468715e+01  6.8623440442120867e+01  8.5196641294112183e+01  5.9930569737296970e+01  4.8941580094757668e+01  4.8932461310159347e+01  3.2365661658461384e+01  8.4739805893469750e+01  8.4918761526596668e+01  8.4989958727387489e+01  7.5507297702879924e+01  8.1525427184670221e+01  8.5080897572782419e+01  8.3515448803449345e+01  6.6870882796406860e+01  8.7905252277608326e+01  8.7847451179980325e+01  6.1110390713672885e+01  3.5080679914449881e+01  6.0892307509762666e+01  8.2021558310467455e+01  5.5926462828031916e+01  6.4602440808978741e+01  8.7473000596411708e+01  6.1750529589806661e+01  7.3360826086890071e+01  4.0884908794890393e+01  5.6427312143470786e+01  5.5649398365270002e+01  5.7038548813438901e+01  8.5900220402009126e+01  5.0351995669448378e+01  5.1257668795487206e+01  4.9362573903512875e+01  5.1127308512988641e+01  4.7361748297423460e+01  3.2864688407811009e+01  3.1212844335205215e+01  5.2243588570620780e+01  5.5003076587209193e+01  7.5649586531062099e+01  7.5560875859899340e+01  8.7693207997208305e+01  6.6948433298209238e+01  6.4911902182436762e+01  6.0784608280477642e+01  6.0276121054347108e+01  6.0409907603145470e+01  6.0590191810648506e+01  6.0296184172014044e+01  6.0301368633672411e+01  6.2248876236329174e+01  6.0427309240951352e+01  6.1029567775034934e+01  6.4037539060355712e+01  6.2384992137185137e+01  5.8625486848570226e+01  6.0133049045839428e+01  4.4756728834443265e+01  4.6509040606572405e+01  4.4668885448517550e+01  4.3061404129248864e+01  4.3639278656015826e+01  4.1621508733567488e+01  4.2940360252501407e+01  4.2250154194074113e+01  3.8903660958488260e+01  3.7707511051780997e+01  3.4017304196987354e+01  3.4531231199562214e+01  3.4479662181690422e+01  3.5481203880100722e+01  3.4921862107232968e+01  3.6232570934351244e+01  3.6292853652028469e+01  3.5481744255926088e+01  3.6686602063669895e+01  3.6466350779217898e+01  3.7206639512293755e+01  3.6666718307920284e+01  3.7895306610906424e+01  4.0394966166051859e+01  3.8879055976019465e+01  4.7517031187705207e+01  4.6519299635777330e+01  4.7013729722652577e+01  5.0382905807386116e+01  6.8125128555256296e+01  6.7305873141908648e+01  6.6309432968058630e+01  6.7805996813556177e+01  7.3849963425771747e+01  7.7145927501959932e+01  7.4961375329355349e+01  7.6874644894239339e+01  5.4287259676285558e+01  4.9983302680751450e+01  5.0443917044818264e+01  5.2481498693428854e+01  3.7037022464081730e+01  3.8697280069538884e+01  3.6766292860223643e+01  3.7588221227850198e+01  3.7037286912857951e+01  3.6417674713684654e+01  5.4863880581397908e+01  5.6704363859726826e+01  5.1513106796725708e+01  5.4605463161179088e+01  5.1360458247803962e+01  7.5436869874835338e+01  7.2671376666373007e+01  6.0702279651848698e+01  6.0492073252255395e+01  6.2896682725939002e+01  5.9797682105843258e+01  6.2774397290897994e+01  6.1601035657209273e+01  6.3244552896150317e+01  6.6272825958328426e+01  6.5068282177175590e+01  3.8578002846203567e+01  4.0057045555643342e+01  4.1764785031005111e+01  4.0711822841697860e+01  4.3642709746011171e+01  4.3059600254338307e+01  4.7385763504264666e+01  4.0317535148498834e+01  4.0809686603387426e+01  4.5325433742803064e+01  4.5741856401768587e+01  7.3032041432478636e+01  7.7424327229975631e+01  7.4345736739085694e+01  7.8162663297345233e+01  8.0936857329653392e+01  7.0317830273251047e+01  6.5850282227415065e+01  6.9170164536305037e+01  6.7445505574827095e+01  5.2152158120633516e+01  5.5704855351536182e+01  5.6377479957674488e+01  5.2302406562200247e+01  7.1982598460149063e+01  6.9395878622932258e+01  6.9413232047094738e+01  6.7085185994124529e+01  3.5055313373417256e+01  3.4139648064054406e+01  6.1541241834999880e+01  6.0494871205232130e+01  5.9350871973928079e+01  7.1428245179636420e+01  6.9249912556807573e+01  7.2705070497025432e+01  6.9399348329151579e+01  5.4205550828255213e+01  5.0297089324062142e+01  5.0733496626693260e+01  5.2422774561735004e+01  5.0815526903749948e+01  5.2519946447451865e+01  3.7543181104244937e+01  3.6494692517433961e+01  3.7610485147762667e+01  3.6554014961720192e+01  3.7014075756819146e+01  3.6937148293903569e+01  4.6200043590019959e+01  4.8379019685939596e+01  4.8141173801454322e+01  4.8410101001239333e+01  4.1069437095800041e+01  4.6458455562500419e+01  4.6454680232187918e+01  4.7624261380825843e+01  4.1846596313406920e+01  4.4458481151041191e+01  5.7296200621959528e+01  5.8926648557720519e+01  5.6728484892560353e+01  5.6052096226488651e+01  4.0855551953605456e+01  4.4381899963363388e+01  4.0230798371485214e+01  4.5049079049378442e+01  3.7691959284707636e+01  3.4779691589763203e+01  3.7610329946523898e+01  3.6211168738571061e+01  3.6349094354105162e+01  3.5493498610224378e+01  3.7040498484510984e+01  6.4342777070861800e+01  6.3604107897350850e+01  6.6185550014733806e+01  6.6084548632771160e+01  7.0444371681900378e+01  4.8905338983971824e+01  4.9387916748017346e+01  7.0710576457467141e+01  6.2983475831643446e+01  5.9615350020073542e+01  5.8952566053939691e+01  6.2191063455079686e+01  6.9290803399267887e+01  6.7266716221531510e+01  6.3600711697476676e+01  6.3337296949056856e+01  5.7532315847906041e+01  5.2707732445021684e+01  3.9030471548577715e+01  3.8767214627372653e+01  3.7881865580075477e+01  5.9190665553320336e+01  6.1021001353639861e+01  7.6481110121449163e+01  7.8860918156847191e+01  7.2814340962673114e+01  7.6512535091782908e+01  7.3172279387821661e+01  7.3316768542556858e+01  6.8084476614223561e+01  6.7484111174628396e+01  5.5558168447774520e+01  3.8411440862497912e+01  5.7911191819951775e+01  5.8925087473585961e+01  3.5282643666270083e+01  3.6213276110058018e+01  3.5176484499905598e+01  4.2457427913768022e+01  4.4936071561727111e+01  5.3051948908760906e+01  4.9460991908876693e+01  5.0119296533378694e+01  5.0500066095454073e+01  5.9643410050164889e+01  5.9894460670012315e+01  6.0513037312486411e+01  6.0588194350532362e+01  6.4824173384183254e+01  6.4377888031263183e+01  5.4803337063206570e+01  5.0157249540581788e+01  4.8722417835546231e+01  5.0757260553053776e+01  4.8724083503906137e+01  4.5772467464892934e+01  4.7030909035543850e+01  5.5602208847813856e+01  5.2315613779338854e+01  7.5998528051452453e+01  5.4404233275504197e+01  5.1243837102254545e+01  6.2947961881940742e+01  6.5705332378920019e+01  6.9050940528702597e+01  6.7187760133599141e+01  3.7096697778308986e+01  3.4126091414811626e+01  3.6801870311893836e+01  5.9913265362588575e+01  3.6043081543749189e+01  6.0587977957769503e+01  4.1768857018616302e+01  3.8147808728347108e+01  6.1388850590175572e+01  4.8841942404563120e+01  6.7973547016506444e+01  3.6841053014333546e+01  3.7236583423261095e+01  3.6552156050777292e+01  3.6717490789879498e+01  3.6496033967130188e+01  6.2180124794442243e+01  4.3396240351631036e+01  4.5420228457585914e+01  4.4497922038831490e+01  7.5759463258513406e+01  5.8494484113768038e+01  5.3468576672235116e+01  5.3426919843748287e+01  5.4317085168057474e+01  3.4941684292334592e+01  6.9274659865133103e+01  6.9869536143672832e+01  3.7345780280135386e+01  3.7026239361989973e+01  4.7182676648832874e+01  4.7677651477414983e+01  4.3017012335922864e+01  5.6884882986680900e+01  6.0462670724080553e+01  6.1763556108429263e+01  5.9583004433536097e+01  6.2473131088750847e+01  3.9605633279944470e+01  3.8133022311985059e+01  3.8635361437488577e+01  3.8276505998007572e+01  6.9597366733935814e+01  3.8329496256166586e+01  3.9940070033734372e+01  4.0777997724759175e+01  5.0692165668308363e+01  5.1020130455811532e+01  5.1397255933025015e+01  4.9618550380635476e+01  3.9689580498532351e+01  3.7926475561445372e+01  3.8896069145149148e+01  4.9535111215569934e+01  7.3381989117164821e+01  7.4021405546785985e+01  7.5019582529644367e+01  6.2252360641278251e+01  6.7038012485249126e+01  5.2596351181218942e+01  4.9972032941798290e+01  4.9140455481983530e+01  5.0445687127234862e+01  6.4862446173112517e+01  6.1879895764013014e+01  6.2602310455294742e+01  3.6460446781847558e+01  3.6200539172919775e+01  3.5977814863770519e+01  5.2793687814119949e+01  5.4807523287065891e+01  5.4504136315534979e+01  5.2188984893553510e+01  6.6622269392520082e+01  3.6165416158635281e+01  3.6511304527849184e+01  3.6410391030883105e+01  6.0412005969695549e+01  6.0169672181678948e+01  6.0232305274892894e+01  4.2958091606694992e+01  4.4170022225585242e+01  4.4810002877903237e+01  3.7435819280359226e+01  3.5287530785773249e+01  3.5672850126816058e+01  6.1288899289667377e+01  6.2749464729378147e+01  6.1913454403212711e+01  6.1106508525667770e+01  6.1112982900981820e+01  6.1528695315509701e+01  6.0767538045056803e+01  4.5128400124675188e+01  3.5756272721442954e+01  4.7972023122521101e+01  6.8663787099092403e+01  5.1388955955429253e+01  5.0833259465894152e+01  3.6677216411688711e+01  3.7610642328269606e+01  3.7747033590029368e+01  3.8943879693745629e+01  3.8257961647035316e+01  3.7250551647184942e+01  5.1340850947771919e+01  5.0353953061352016e+01  5.0363158789920995e+01  6.1588256347560993e+01  6.2253918533507907e+01  3.7842378249528515e+01  3.8639867513493911e+01  4.1631933409306846e+01  4.2098704189358976e+01  4.6630829254098458e+01  4.0406249420087335e+01  4.0486374040612446e+01  3.9746012778931750e+01  4.7725393614092908e+01  7.5275851952474540e+01  5.2533805787467053e+01  5.4372561472310089e+01  5.3301584712627026e+01  6.7925048708689445e+01  6.8573626627004742e+01  6.7300927314774796e+01  5.1517269552799753e+01  5.3543913792313063e+01  5.1730886928399229e+01  4.5091737620536570e+01  5.5846022545730783e+01  5.5275953623093848e+01  3.8335418138184167e+01  3.7757361211514386e+01  6.5245100008819151e+01  6.4962938145088302e+01  6.5920745131632643e+01  3.8253024084307619e+01  3.6149885139779187e+01  </DataArray> 
</PointData> 
</Piece>
</UnstructuredGrid>
</VTKFile>