<?xml version="1.0"?>
<VTKFile type="UnstructuredGrid"  version="0.1"  >
<UnstructuredGrid>
<Piece  NumberOfPoints="784" NumberOfCells="1320">
<Points>
<DataArray  type="Float64"  NumberOfComponents="3"  format="ascii">266913.131276 586512.314988 0  266738.13716 587762.325998 0  266363.132677 589012.328643 0  266175.641078 590169.601714 0  265666.575631 591040.7699119999 0  264875.64001 591687.766419 0  264900.636161 591845.049083 0  266088.14152 592012.3229499999 0  265561.959259 592661.17101 0  264288.136855 593037.368683 0  263865.194033 593999.8486949999 0  263850.641856 593236.729596 0  263625.634872 592756.525286 0  262689.574249 593299.848918 0  262475.636737 594003.0907310001 0  261934.554452 594340.929792 0  261725.631329 594932.094409 0  261729.256443 595728.498809 0  262138.136044 595012.330523 0  262288.141035 596262.333669 0  261488.994028 597511.480605 0  261234.15567 598316.338928 0  260815.635063 599014.863821 0  261400.643658 599389.7367680001 0  261322.963374 600022.185065 0  261119.455248 600931.061306 0  261607.436504 601293.0629359999 0  260807.446929 602089.899812 0  260025.642878 602988.868697 0  259613.135827 603937.3854499999 0  259050.643123 604100.987861 0  258411.880065 603988.6335979999 0  257764.357469 604449.872569 0  257971.239668 605320.429125 0  258041.396867 605740.635381 0  257188.143339 606987.394312 0  256038.141198 608112.3554550001 0  254788.141633 609087.4026939999 0  253588.140656 609812.362881 0  252338.135706 609737.4048949999 0  251088.138116 609787.404055 0  249963.12851 610287.399466 0  248613.130524 610462.365857 0  247363.132198 610687.407659 0  246113.130532 610837.411551 0  245832.347438 610918.209918 0  245016.946433 610958.5639439999 0  244313.129646 610762.372259 0  244400.622144 611378.093316 0  243939.669208 612460.8930899999 0  242960.649733 611984.892792 0  242170.381438 611919.647351 0  241888.122919 611112.375656 0  241393.380757 610467.6456149999 0  240594.157528 611306.369822 0  240525.621947 610804.648112 0  240363.123632 610512.3745050001 0  239113.123247 610262.374278 0  239813.12126 609037.412459 0  240588.122952 607812.368199 0  241013.119545 606625.9534560001 0  241454.373249 605724.888025 0  242238.120107 604687.3993 0  243088.121248 603462.362766 0  242860.319451 603007.3932640001 0  241563.116617 603812.361344 0  241778.400913 604327.642217 0  242059.837234 604824.879102 0  241475.620201 604923.2402390001 0  241462.182234 605449.881372 0  240906.219606 605674.888222 0  240241.856192 606891.125066 0  239891.734044 607841.012479 0  239048.653431 608724.889805 0  238118.054545 608974.895967 0  238888.111029 607337.406468 0  239738.119992 606212.362729 0  240288.12044 605687.4075229999 0  240380.212307 604729.521696 0  239347.309632 604603.204501 0  238888.112036 604387.408787 0  237913.11173 604687.401386 0  236784.172023 604499.882783 0  236883.408793 603717.08334 0  236154.933927 603595.565605 0  235688.103943 602912.369264 0  235763.108033 601662.366516 0  236363.110805 600412.35884 0  236738.107995 599162.356577 0  236525.607944 598482.2412899999 0  236138.109208 599362.357613 0  235725.063048 600325.4466510001 0  235091.948926 601408.5220979999 0  235188.10921 600312.366344 0  234375.602405 600833.9674270001 0  234663.109308 599912.358011 0  234138.105122 600062.365644 0  233955.307245 599029.561063 0  233338.103791 598387.401556 0  233988.09795 597862.356384 0  235138.101489 596637.3947750001 0  235563.1039 595387.392428 0  236513.103639 594212.356312 0  237163.10684 592987.3929869999 0  238313.103031 591862.3515540001 0  239513.107028 590812.3512640001 0  240638.102135 589787.387271 0  241463.109549 588587.378486 0  242294.489816 587443.735215 0  242913.101099 586512.341804 0  243544.066915 585474.859604 0  243040.448415 585184.975583 0  242438.10214 585337.38015 0  241313.102353 586562.339499 0  240538.107104 587787.382449 0  240114.641085 588588.939407 0  239388.100256 589437.382238 0  238188.104456 590512.346358 0  236938.100507 591362.349798 0  235813.10453 592537.396388 0  234864.502938 593178.7753880001 0  234463.097651 592862.357267 0  235113.0965 591662.3545979999 0  235713.101522 590412.346099 0  235777.688431 589976.7582779999 0  234943.583145 590706.265132 0  234462.482256 591490.2841159999 0  233801.497784 592112.940187 0  233388.099101 591787.394208 0  234013.093099 590437.393065 0  234776.217248 587148.7548100001 0  235163.093726 586562.3486189999 0  235313.098918 585483.229012 0  235250.59732 584662.298153 0  235588.093896 583337.379493 0  236329.432041 582199.858992 0  237188.096234 581462.3349939999 0  237463.088521 580212.335511 0  238350.592558 579057.652616 0  238591.415797 578574.847681 0  238313.094106 577612.328905 0  239229.696732 577695.769664 0  240195.161018 577513.008613 0  240614.996733 577149.8518770001 0  240663.091715 577412.332622 0  240288.092486 578662.334085 0  239942.357258 579508.095811 0  240438.100019 580212.3334220001 0  241338.095553 580387.375355 0  241238.099828 579137.369157 0  241788.097003 577887.370889 0  241983.554649 577241.9220939999 0  242054.178239 576927.8105029999 0  242588.100699 575737.366175 0  243149.324833 574898.583978 0  243695.278626 573919.517981 0  244268.494418 573724.8454239999 0  244995.134063 573930.2767810001 0  245417.314363 573391.601898 0  243450.599125 571859.479773 0  245776.797908 572599.8353060001 0  246779.639852 572973.285167 0  248034.741935 573186.082054 0  249413.10651 573162.3205520001 0  250496.922226 573271.1521899999 0  251613.105126 573237.3551319999 0  252421.824577 572846.032906 0  253256.245022 572580.4733130001 0  253739.471933 571960.9547369999 0  254174.511864 572149.8346569999 0  254484.944333 571684.194807 0  254384.108649 570891.346712 0  254344.002752 570218.26407 0  255025.609604 570829.0294979999 0  255715.005913 570489.264586 0  256218.846343 570774.828355 0  256834.349083 570508.5908 0  257390.092515 570014.308325 0  257624.431042 568493.478911 0  259355.811717 569380.021819 0  260033.372814 569617.066669 0  262679.741751 570320.699974 0  263289.115756 569524.817815 0  263463.114338 570512.301061 0  264638.198419 570687.3443539999 0  265058.220065 571334.378467 0  265447.561421 572077.90485 0  265488.125257 573137.3446020001 0  265131.937715 573963.293593 0  265432.389648 575093.068786 0  265638.122314 576338.029955 0  265750.630817 577371.8281319999 0  265738.570663 578561.9098850001 0  265875.630866 579139.630549 0  266213.129247 579862.311842 0  266563.130472 581112.314509 0  266238.135356 582362.310259 0  265938.12863 583612.320897 0  265738.131342 584762.3210189999 0  266875.638633 585365.358768 0  264018.7239399826 593650.4646671159 0  262236.3944351029 595831.1252656333 0  241846.246678 605206.1436625 0  240200.622106 608424.8903290001 0  240943.4862974102 610939.7757535663 0  236550.6094 599787.3577085 0  238528.1212051503 608102.9081793013 0  244413.4891967989 572609.5960859474 0  236382.0474488751 598808.3067022427 0  235369.601910944 600933.5380148316 0  235413.099011 591037.3503485 0  235446.2251831186 590266.6553871984 0  240475.5921005 578037.3333535 0  240413.173949154 577324.4280286073 0  240574.037899 606283.0066440001 0  263857.9179445 593618.2891454998 0  264153.4303974913 593343.916675058 0  242042.1833925 604946.7714812499 0  241650.3099635 605465.51584375 0  244613.6985165 572229.6575395 0  236631.8579695 598822.2989335 0  235140.029068 600860.444221 0  241767.7287175 604874.0596705 0  242140.15174975 604817.0853906251 0  234781.8558075 600573.1668855001 0  242091.167571125 604881.9284359375 0  234519.3558565 600373.162719 0  254604.8337712102 583989.0014118921 0  250699.5846056537 594617.3297041012 0  250540.4796469513 602258.2940568649 0  248483.7490186612 580334.7345534252 0  258549.2190328319 577893.951823392 0  257067.0067473103 590016.5327808241 0  243285.0921999099 596333.923437875 0  248333.1386145258 589098.0389905117 0  256142.8445072741 595883.3911551933 0  260245.1368072523 583315.2785712298 0  253472.3380211276 578932.2908163272 0  246432.3347504817 599884.5019511909 0  261555.9240922556 588041.186709004 0  247293.1100123104 605823.8307887657 0  246458.2798550911 593168.8646574575 0  252840.0183145193 588226.5564648228 0  249828.2874404451 584740.7888937403 0  255409.5660975206 600458.8956828594 0  260819.9733392385 574219.403683011 0  252584.2262054711 605722.6603825617 0  254049.8830611471 592547.4852571967 0  250015.4356193061 598425.2225922942 0  245872.072249477 577604.9761853142 0  262002.1583249522 579753.4663046852 0  257732.6630933878 586227.970805314 0  250242.5556457866 577017.3316409125 0  244921.6453001869 581816.6358421432 0  256520.3890639471 580904.824006648 0  240779.0970645865 599524.6679555867 0  257100.1829219198 574459.5922545703 0  239912.2630002034 595231.1172704464 0  244703.0875078634 590068.6945953515 0  242549.5490268674 592874.3693043783 0  251586.0465921376 581796.2215047925 0  246643.189997516 596527.447801719 0  251049.7658069622 591057.6752245198 0  253014.5731561695 596998.6601086652 0  238680.2197353724 584542.2309791476 0  259715.365803504 591937.1938619445 0  254097.157218761 575731.4494927844 0  246806.6408589328 586139.0877599345 0  246136.1179750556 602959.471719323 0  253520.7033332401 602835.180253843 0  244125.4295793909 607538.9817227355 0  252546.8895354472 599881.3279113505 0  258289.0983523553 600397.640191779 0  247518.7952199645 583037.3718217331 0  263140.3959879661 582529.2228421422 0  262894.8586894067 585442.3590432997 0  256968.6320599076 593040.7691844478 0  243573.0187527719 600218.2795730785 0  258888.5766127351 595139.7745218446 0  262588.7569809347 576734.8569237856 0  259318.4257992262 580601.2540325444 0  249963.3812725965 607065.7205847671 0  257494.5307999607 583482.5893534871 0  258906.4757205145 572278.8089438241 0  237751.446593475 587300.5805003279 0  255142.4708720699 604956.7580261135 0  258485.4978753244 597756.9250383095 0  255516.7820591553 587791.39641967 0  239758.4692108706 601926.8203218657 0  255873.0092222999 577739.5085867504
[...]
<PointData  Scalars="f_32-1"> 
<DataArray  type="Float64"  Name="f_32-1"  format="ascii">4.2016144088832171e+01  4.3288870627950047e+01  4.5298891891895671e+01  4.7049599435255324e+01  4.8380769972141223e+01  5.0476619785769095e+01  5.1111451721658192e+01  5.1562739447456373e+01  5.1587332351147033e+01  5.2138992757559890e+01  5.2483144363330062e+01  5.2356121577391370e+01  5.2642328746706376e+01  5.5292242757589285e+01  5.6685155680828515e+01  5.8045480098687960e+01  5.9576965008543276e+01  6.1016812764007710e+01  6.0969679921281873e+01  6.1373065499972597e+01  6.3529287944369862e+01  6.5276907879351313e+01  6.7228417723892804e+01  6.8231131307744022e+01  6.8755084309668035e+01  7.0024604186288727e+01  7.0389152199213598e+01  7.1076666820157016e+01  7.2370286211033587e+01  7.3152583338142279e+01  7.3348290897723743e+01  7.3846471978300499e+01  7.5040904171289228e+01  7.5974484006823999e+01  7.6147602763854849e+01  7.7060501713992323e+01  7.8297277107068837e+01  7.9591940184489303e+01  8.0513895005731897e+01  8.1324301152979942e+01  8.2531972005533149e+01  8.3656100469399263e+01  8.4679443992750677e+01  8.5578473334743705e+01  8.6382240598166575e+01  8.6552267993949258e+01  8.6987824408555582e+01  8.7542481122045203e+01  8.7969498695678794e+01  8.8164904206501291e+01  8.8202941531308909e+01  8.8240387363097611e+01  8.8228191538689572e+01  8.8312105817364682e+01  8.8509710987648646e+01  8.8494593416939935e+01  8.8497568304384743e+01  8.8578299187791757e+01  8.8363800146066950e+01  8.7666095841011938e+01  8.6853598605675813e+01  8.6177684223880107e+01  8.5089058954207275e+01  8.3325288549915740e+01  8.3153361683452388e+01  8.5387140947146065e+01  8.5971881311010549e+01  8.6107434697730881e+01  8.6258581396232685e+01  8.6475889846807860e+01  8.6759981947048516e+01  8.7795492296059649e+01  8.8174322249403176e+01  8.8381722090549275e+01  8.8427191227043480e+01  8.8199913412330702e+01  8.7631559205737148e+01  8.7042443585310792e+01  8.6400372596638618e+01  8.6716708102926006e+01  8.7003667058700699e+01  8.7427208700533797e+01  8.7560507905462089e+01  8.7546806985241616e+01  8.7588543755388415e+01  8.7554915376544002e+01  8.7258376219162855e+01  8.6340609070415624e+01  8.4868790839793576e+01  8.4677537147418775e+01  8.6129947490010451e+01  8.6766000427518932e+01  8.6963587605958907e+01  8.6808638884090527e+01  8.6890073274003626e+01  8.6729226734768858e+01  8.6708200360832734e+01  8.6493037785677842e+01  8.6394452112868578e+01  8.6110575717293628e+01  8.3872810715224176e+01  8.1504253877665889e+01  7.8523710581174853e+01  7.5688010538335405e+01  7.2979894267782200e+01  7.0620598037292254e+01  6.8685738398075301e+01  6.6927556156546359e+01  6.5048104340294742e+01  6.3426981129186672e+01  6.1470959381914781e+01  6.0406089561871660e+01  6.0658386737916345e+01  6.4100778308227575e+01  6.6746214951932075e+01  6.7772827552751522e+01  6.8802155410121401e+01  7.0540879211787242e+01  7.2761192220853047e+01  7.5147376846386891e+01  7.5799307069640548e+01  7.5806424778346255e+01  7.4819152558296267e+01  7.2801284570735348e+01  7.2394570015765922e+01  7.4235417229655184e+01  7.5470284534970290e+01  7.5890723950647583e+01  7.5894298958360977e+01  7.4580036889503234e+01  7.0146295399994273e+01  6.9413096820105210e+01  6.8309720041328234e+01  6.7700825062416797e+01  6.6782041789896169e+01  6.5678571297215640e+01  6.4331088900243046e+01  6.3015115951080126e+01  6.1885402480843041e+01  6.1420743329695668e+01  6.1136617112096936e+01  6.1065518330361833e+01  6.0826624607220481e+01  6.0752795899439050e+01  6.0761665017769815e+01  6.1122904649449673e+01  6.1712472566433178e+01  6.1840404419739571e+01  6.0714545924044103e+01  5.9131638861776658e+01  5.7896419785307756e+01  5.7132883798071440e+01  5.6814105049123782e+01  5.5320528545095250e+01  5.4033491509476768e+01  5.2864584661771488e+01  5.2495530545191450e+01  5.1403143308531547e+01  4.9886983741225706e+01  4.9793155155886410e+01  4.9435137811328751e+01  4.8676825329454289e+01  4.6634582749789701e+01  4.4158104984481554e+01  4.2781704406737013e+01  4.1243276358075889e+01  3.9842849202904212e+01  3.8611989436815648e+01  3.7931324191300057e+01  3.7503941587663725e+01  3.6589437438079273e+01  3.6034816549956169e+01  3.5960648753467567e+01  3.5866586982875347e+01  3.5355071898720134e+01  3.4864052765109356e+01  3.3796691268117975e+01  3.2906789807130224e+01  3.2785320750265690e+01  3.1882188920500433e+01  3.1768098801636381e+01  3.3497207202539535e+01  3.3684814695824976e+01  3.3635944060716717e+01  3.3382016724518358e+01  3.3084781834851860e+01  3.2818459321082059e+01  3.2840114003651962e+01  3.3313155738619329e+01  3.4052929060477176e+01  3.4868632628391964e+01  3.5601426378549441e+01  3.6552049512959279e+01  3.7091273777006393e+01  3.7742447302042414e+01  3.9028853980045817e+01  4.0619682509652186e+01  4.1663821793673264e+01  4.1704606293618525e+01  4.1506397712333687e+01  5.2448182127083776e+01  6.1156069666532964e+01  8.5688115846998912e+01  8.8081270438550916e+01  8.8484923667736155e+01  8.5633168162881901e+01  8.8363275531159914e+01  4.9683331773774938e+01  8.5408563022796685e+01  8.6924948229133562e+01  7.3844877903807642e+01  7.3090875249606086e+01  6.0880668609642640e+01  6.0768129218350566e+01  8.7353552198353981e+01  5.2448122106277992e+01  5.2362749850864553e+01  8.5402591668605837e+01  8.5951346103138292e+01  4.9682825119715041e+01  8.4552154536306787e+01  8.6925049140713057e+01  8.6132981847477652e+01  8.5250296730158325e+01  8.6859465999130890e+01  8.5327498539990529e+01  8.6858687915292407e+01  4.8546570340767943e+01  6.6716714772105902e+01  7.6108007812539640e+01  5.0339850098583653e+01  3.3234734385667274e+01  5.0556074827931184e+01  7.5654040777162820e+01  6.0747587339922717e+01  6.4751962504633212e+01  4.2376834772140647e+01  3.9968568183238872e+01  7.5425956355528186e+01  4.7251837446504297e+01  8.2624245017243041e+01  6.7679850596009246e+01  5.1911814412891893e+01  5.7073990543254787e+01  6.8225460056249773e+01  3.4188392246732953e+01  7.8659602775261902e+01  6.1764914413849397e+01  7.0281019556404146e+01  5.2037297788636494e+01  3.5254712519190107e+01  4.4644059900747251e+01  4.4176078490392911e+01  5.7364818235694166e+01  4.3137232898759400e+01  8.1852892652967455e+01  3.7115756825929346e+01  7.6459881493734912e+01  6.3837824689911294e+01  7.0607865789984842e+01  5.1273731630734808e+01  7.2849650452543941e+01  6.0121598973338493e+01  6.7457318361477320e+01  6.5263395491950561e+01  5.6147718863310018e+01  3.6874809007141401e+01  5.9757589222451962e+01  8.0124268134609096e+01  7.4962667230804442e+01  8.6092487771438300e+01  7.0823859999458705e+01  6.9843451771383428e+01  5.6486812707253918e+01  3.9422433639172510e+01  4.2494152926171601e+01  5.9286682381871955e+01  7.9710626229072091e+01  6.1700593045457389e+01  3.5459353484519276e+01  3.8819610035382595e+01  8.1774792140874098e+01  4.4918358664052299e+01  3.3139655311158151e+01  6.8421872547537163e+01  7.6485426213242931e+01  6.5809206436050204e+01  4.3962695919681387e+01  8.5552775385727656e+01  3.6276293591359241e+01  5.1545612018805201e+01  5.9939435583175595e+01  6.5433162033029319e+01  5.6674738551227222e+01  4.7404537989646407e+01  4.4403137274361626e+01  5.4699216838258799e+01  4.7606131172613679e+01  4.7846523818185155e+01  4.5225715984276349e+01  4.8764486254427872e+01  8.5121801839937007e+01  7.9135963030149341e+01  5.3357665469357464e+01  8.3715424851539296e+01  7.6326579851549170e+01  7.3481539101258079e+01  8.1178760271982853e+01  6.3075395561186376e+01  5.9516440975466431e+01  6.5346352669924173e+01  7.2694949670323510e+01  5.7946602776615762e+01  7.8616877757784863e+01  4.7553055654012375e+01  6.5883193322308188e+01  3.3188115589446262e+01  4.8070229638091895e+01  6.9165799849468186e+01  7.8180818780490625e+01  6.2762381894771714e+01  7.1448819126505498e+01  6.1756253567419158e+01  7.2453421989558734e+01  3.3885399622959106e+01  5.1431819629690210e+01  5.3890685039335494e+01  8.0349986247124193e+01  6.7336915837899625e+01  3.7518000857878270e+01  7.9924073024786480e+01  6.3844030269171483e+01  8.4714789844988104e+01  3.4017085578667988e+01  8.5377893487955092e+01  8.5300214057622483e+01  5.5707178628034576e+01  5.1456931896881350e+01  8.5369167312776639e+01  8.6336325776796926e+01  8.3488725264420196e+01  8.5530666610456819e+01  7.2052754624882070e+01  3.6654819981842259e+01  8.1302843925851079e+01  7.6479194175732943e+01  5.6609093304821435e+01  5.1043335668640267e+01  4.7978096265473631e+01  8.6103169396545994e+01  8.5290795041383547e+01  5.9149547729290376e+01  8.6347717300783685e+01  8.4286794997833681e+01  8.4795825502652832e+01  8.6468364203628809e+01  5.9926935891280529e+01  4.9567692451846710e+01  7.1879680018020025e+01  3.4766963100239089e+01  4.9698431302533635e+01  3.6979867814954133e+01  6.9857450684494850e+01  8.7868705499294364e+01  6.7254075579045789e+01  7.3248667475103801e+01  8.3935887348083440e+01  5.9788376962332173e+01  3.1791582603452525e+01  7.2582435959509795e+01  3.9154449119538931e+01  5.2953449336672200e+01  8.5320371248717407e+01  8.3368906389920866e+01  6.2660921276664681e+01  8.7869346755928035e+01  4.3452590758272471e+01  8.5857710173369071e+01  6.4588883813141422e+01  3.3099761772452979e+01  3.6833066091792361e+01  3.7407612446719547e+01  7.2952426337394627e+01  8.2390506110638327e+01  8.1754679665022223e+01  6.9239247894451339e+01  8.5830193077702447e+01  6.0762237153250005e+01  4.9606772516422879e+01  4.9594182269209170e+01  3.3163594782069978e+01  8.5365876799927861e+01  8.5547980441918284e+01  8.5620742616655292e+01  7.6210205447463437e+01  8.2133477510144658e+01  8.5638445397756570e+01  8.4082346104771105e+01  6.7548211792972367e+01  8.8439370198970408e+01  8.8391559046137843e+01  6.1635669939778204e+01  3.5629671757814968e+01  6.1649610406301768e+01  8.2605825857802046e+01  5.6621957662672074e+01  6.5175754045005078e+01  8.8043204611977572e+01  6.1765211873556403e+01  7.3917894180155741e+01  4.1531509264774186e+01  5.6873593939111402e+01  5.6091250052981643e+01  5.7490693227946295e+01  8.6298905010596641e+01  5.0886679101751135e+01  5.1709781462818725e+01  4.9974766180165730e+01  5.1582504891714372e+01  4.7977564249540187e+01  3.3313356971040413e+01  3.2042994468575891e+01  5.2863603901177157e+01  5.5462254692790957e+01  7.5594016862681315e+01  7.5529908438515122e+01  8.8260315146323293e+01  6.7406377796091078e+01  6.4952283867016732e+01  6.0914040037214718e+01  6.0530746274684958e+01  6.0485447486375826e+01  6.0352120842642528e+01  6.0287613064696899e+01  6.0057172305433234e+01  6.2176269231972107e+01  6.0148939726506249e+01  6.0805350756448853e+01  6.4292460427391546e+01  6.2354812292822558e+01  5.9027683800898863e+01  6.0554046663231219e+01  4.5224848569239967e+01  4.6868312267211095e+01  4.4818161835597614e+01  4.3423957844643084e+01  4.3713400212654584e+01  4.2016225477476638e+01  4.2948811804624334e+01  4.2300315256508028e+01  3.9173135068943189e+01  3.8034070434883645e+01  3.4716745773225078e+01  3.5232126505292037e+01  3.5160574281542225e+01  3.6036155721156696e+01  3.5539069510554370e+01  3.6830440586477707e+01  3.6794789213098056e+01  3.6006086158037093e+01  3.7452903323701435e+01  3.7016810443872373e+01  3.7825557269955326e+01  3.7315634061431922e+01  3.8483513956149842e+01  4.0527930144734910e+01  3.9250664171547172e+01  4.3460801181704355e+01  4.6727948827104150e+01  4.5809613181430741e+01  4.8415868209211169e+01  6.7569435153740869e+01  6.7021418987912540e+01  6.6347130671918706e+01  6.7692760735921482e+01  7.4001107111153971e+01  7.7711774593947055e+01  7.4891601386750040e+01  7.7196470949251733e+01  5.3383383010221493e+01  4.9575212256153272e+01  4.8664878295323554e+01  4.9730880808516048e+01  3.4436090609820745e+01  3.6685784426355546e+01  3.5364388160170002e+01  3.5224651317603012e+01  3.4034411635030906e+01  3.3200481350114764e+01  5.4290522475211780e+01  5.5019938346432056e+01  4.7079313227670823e+01  5.1539504764640839e+01  4.9407030035301425e+01  7.6098218983106051e+01  7.3190560797239272e+01  6.0006650735187847e+01  5.9942394889994610e+01  6.2342492693809589e+01  5.9659719207569374e+01  6.1641910553509319e+01  6.0285553007102401e+01  6.3634079285006877e+01  6.6166387143182547e+01  6.5442872001399891e+01  3.7172609006672658e+01  4.0053765701475719e+01  4.2520135890220310e+01  4.0645305942986660e+01  4.0756938261815769e+01  4.2483533919652764e+01  4.6798317321984776e+01  3.5542082971125680e+01  3.7783088948489045e+01  4.4426053633612995e+01  4.3773662322182574e+01  7.2459454675720423e+01  7.7521003984855497e+01  7.3930980140787739e+01  7.8458572734083916e+01  8.1519123861742074e+01  7.0796590605823511e+01  6.5119927334687631e+01  6.9538450322863554e+01  6.7230699763271886e+01  4.7277091660588809e+01  5.3013044010336046e+01  5.5165844113498743e+01  4.8374884432736899e+01  7.1882595670979654e+01  6.8491273749287330e+01  6.9229824972722525e+01  6.5793062485874344e+01  3.5464173784750514e+01  3.4594872775523207e+01  6.1551080777075718e+01  5.9982001394607785e+01  5.8674283150610790e+01  7.1162307105087052e+01  6.8667918926258537e+01  7.2115952125458676e+01  6.9016315142532292e+01  5.4149222622246036e+01  5.0315316023510050e+01  4.9890994338878748e+01  5.1461398926009110e+01  5.1192950051580027e+01  5.3000447059264928e+01  3.6169751041330407e+01  3.6071563995138710e+01  3.5855352396204488e+01  3.4843143267418739e+01  3.6099112402762131e+01  3.6396710139785988e+01  4.4587995095188504e+01  4.2661986602729769e+01  4.6306151003375817e+01  4.2405709901047430e+01  3.8028133139619939e+01  4.5461412568954231e+01  4.5870755251928934e+01  4.6663528825652655e+01  4.0268709912613659e+01  4.3646211856879525e+01  5.6793026670533735e+01  5.9167412303210511e+01  5.6666305982152871e+01  5.4888639834158120e+01  4.0971859907477601e+01  4.4684088573318519e+01  3.8677685091013686e+01  4.5329067416283117e+01  3.7395779688160381e+01  3.5481464504260302e+01  3.6389171676239968e+01  3.5466236031260841e+01  3.6871857070864465e+01  3.6125264038729597e+01  3.7311273757253247e+01  6.2621998173320570e+01  6.2630332145695732e+01  6.5381784915890876e+01  6.5910109194041368e+01  7.0984314977362232e+01  4.9357014494293850e+01  4.9647488806981777e+01  7.0998874815442221e+01  6.2707940612197923e+01  5.9010499667392281e+01  5.8112416753445288e+01  6.2073273644056336e+01  6.8510269380760292e+01  6.6457753369118564e+01  6.4019104849220582e+01  6.3584209933565248e+01  5.7582691054658497e+01  5.2765346049666498e+01  3.6831886432166613e+01  3.7724084661086991e+01  3.7355631107511087e+01  5.9441461816705051e+01  6.0466503388517530e+01  7.6410424850165384e+01  7.9201417956076511e+01  7.2857871655438984e+01  7.7186664097088951e+01  7.3493948767032506e+01  7.3141588587046385e+01  6.6873718664305741e+01  6.7018021350042559e+01  5.3649704405113681e+01  3.8063947923559205e+01  5.6234421975264127e+01  5.9458124011937862e+01  3.4960681173578280e+01  3.6373329627617643e+01  3.5670836572315793e+01  4.2857134190478035e+01  4.5113107963576866e+01  4.9008944667757824e+01  4.5197469279371873e+01  4.4292743332224923e+01  5.1030663525257665e+01  5.9617357728907940e+01  5.9747800382928233e+01  6.0763450968518455e+01  6.0516198463062530e+01  6.4367161130142975e+01  6.4387226639256355e+01  5.4292913844107957e+01  5.0770760620478605e+01  4.7660116696718006e+01  5.1076308228039828e+01  4.8135798197823796e+01  4.5459596973724217e+01  4.7136537433897544e+01  5.5509528076766784e+01  5.1499023551819903e+01  7.5949685989724045e+01  5.2846590877287142e+01  4.9420103899856223e+01  6.1217771460200382e+01  6.4567116661221903e+01  6.9397870263136156e+01  6.7224753848532075e+01  3.7263492400811977e+01  3.4781664054072827e+01  3.7178769955047628e+01  5.9812041746894863e+01  3.6364983567986890e+01  6.0381908628527064e+01  4.1278174268099676e+01  3.7996984181691118e+01  6.1601597139172164e+01  4.5450920650201553e+01  6.7591104686832082e+01  3.3689212638343399e+01  3.4016651258340609e+01  3.3913348267965993e+01  3.3439240998622623e+01  3.4126076331785889e+01  6.0857787702255365e+01  3.9458416855530011e+01  4.3583333280859947e+01  4.1615584132059595e+01  7.5584779114821202e+01  5.7312602846213544e+01  4.9582450981070366e+01  4.9906990245985760e+01  5.1866667588690717e+01  3.5076992148731833e+01  6.8717101834415772e+01  6.9340621597493325e+01  3.5217164698914658e+01  3.5266166643835717e+01  4.3207311027817227e+01  4.2748896662346603e+01  4.1068413122652188e+01  5.5829542365050763e+01  5.9723141921162551e+01  6.1341332865522972e+01  5.8693016237118783e+01  6.2228064403656987e+01  3.6641579458920972e+01  3.7233192792058624e+01  3.7218782908121277e+01  3.7294716342382806e+01  6.8738240995047036e+01  3.7449294238345821e+01  3.9983848619996529e+01  4.1006302380112430e+01  4.5345054485237938e+01  4.5391096843033289e+01  4.6205703708381634e+01  4.4022050058980518e+01  3.6848069002292888e+01  3.6205959823284523e+01  3.6818233278127700e+01  4.7207369787801056e+01  7.2782413480633167e+01  7.3530112042713696e+01  7.4720685152892258e+01  6.2519772753662465e+01  6.5726149343615234e+01  5.0076795516030622e+01  4.8211672050341811e+01  4.7728967871691211e+01  4.8779792925819045e+01  6.3430115259757201e+01  6.0709647767110411e+01  6.1377610713807023e+01  3.3584436064745901e+01  3.3548426548797586e+01  3.4445804244042023e+01  5.1319490811714360e+01  5.3056872677756132e+01  5.2032554734330951e+01  5.0091321429052684e+01  6.5933897662749445e+01  3.6554339430320823e+01  3.6591710307352393e+01  3.6706502203205673e+01  6.0130980993815420e+01  5.9959704781484824e+01  5.9975661101888477e+01  4.2096810555784671e+01  4.3521612384765419e+01  4.4381818088169602e+01  3.7369120486900123e+01  3.5806196345953921e+01  3.6017908958068524e+01  6.1161618069074798e+01  6.2834663271972950e+01  6.1861644423944483e+01  6.1058289793580059e+01  6.1006057463091551e+01  6.1619819790848233e+01  6.0539597628594201e+01  4.5033763172750788e+01  3.6182981177344423e+01  4.2825673958843744e+01  6.8176596901968225e+01  4.9249288814738257e+01  4.8860839294031202e+01  3.3488340222230811e+01  3.4260344587296828e+01  3.6353311531914073e+01  3.8292815709298701e+01  3.4968638467276676e+01  3.5381047411900155e+01  4.7908369428157904e+01  4.5745116309069715e+01  4.7302056043882587e+01  6.1042627000823352e+01  6.0723832143106847e+01  3.6119164814143950e+01  3.7744939480370377e+01  3.6536912183319480e+01  3.8633799303351104e+01  4.5359150270281418e+01  3.5513046403440129e+01  3.8356193379128079e+01  3.6888787455832926e+01  4.7145660253862843e+01  7.5003739750732876e+01  4.7923341708702552e+01  5.1036492924791759e+01  5.0641707743465773e+01  6.6650770271699457e+01  6.7434788237275939e+01  6.5907011966317540e+01  5.0555723092292688e+01  5.2730250317350006e+01  5.0238407566297319e+01  4.4518430108544536e+01  5.4077678268132303e+01  5.4355842945683925e+01  3.6948487549174693e+01  3.7308317667632984e+01  6.3883590075241514e+01  6.3447672726185367e+01  6.4862085928042617e+01  3.7482571284289087e+01  3.6347772293509031e+01  </DataArray> 
</PointData> 
</Piece>
</UnstructuredGrid>
</VTKFile>