<?xml version="1.0"?>
<VTKFile type="UnstructuredGrid"  version="0.1"  >
<UnstructuredGrid>
<Piece  NumberOfPoints="784" NumberOfCells="1320">
<Points>
<DataArray  type="Float64"  NumberOfComponents="3"  format="ascii">266913.131276 586512.314988 0  266738.13716 587762.325998 0  266363.132677 589012.328643 0  266175.641078 590169.601714 0  265666.575631 591040.7699119999 0  264875.64001 591687.766419 0  264900.636161 591845.049083 0  266088.14152 592012.3229499999 0  265561.959259 592661.17101 0  264288.136855 593037.368683 0  263865.194033 593999.8486949999 0  263850.641856 593236.729596 0  263625.634872 592756.525286 0  262689.574249 593299.848918 0  262475.636737 594003.0907310001 0  261934.554452 594340.929792 0  261725.631329 594932.094409 0  261729.256443 595728.498809 0  262138.136044 595012.330523 0  262288.141035 596262.333669 0  261488.994028 597511.480605 0  261234.15567 598316.338928 0  260815.635063 599014.863821 0  261400.643658 599389.7367680001 0  261322.963374 600022.185065 0  261119.455248 600931.061306 0  261607.436504 601293.0629359999 0  260807.446929 602089.899812 0  260025.642878 602988.868697 0  259613.135827 603937.3854499999 0  259050.643123 604100.987861 0  258411.880065 603988.6335979999 0  257764.357469 604449.872569 0  257971.239668 605320.429125 0  258041.396867 605740.635381 0  257188.143339 606987.394312 0  256038.141198 608112.3554550001 0  254788.141633 609087.4026939999 0  253588.140656 609812.362881 0  252338.135706 609737.4048949999 0  251088.138116 609787.404055 0  249963.12851 610287.399466 0  248613.130524 610462.365857 0  247363.132198 610687.407659 0  246113.130532 610837.411551 0  245832.347438 610918.209918 0  245016.946433 610958.5639439999 0  244313.129646 610762.372259 0  244400.622144 611378.093316 0  243939.669208 612460.8930899999 0  242960.649733 611984.892792 0  242170.381438 611919.647351 0  241888.122919 611112.375656 0  241393.380757 610467.6456149999 0  240594.157528 611306.369822 0  240525.621947 610804.648112 0  240363.123632 610512.3745050001 0  239113.123247 610262.374278 0  239813.12126 609037.412459 0  240588.122952 607812.368199 0  241013.119545 606625.9534560001 0  241454.373249 605724.888025 0  242238.120107 604687.3993 0  243088.121248 603462.362766 0  242860.319451 603007.3932640001 0  241563.116617 603812.361344 0  241778.400913 604327.642217 0  242059.837234 604824.879102 0  241475.620201 604923.2402390001 0  241462.182234 605449.881372 0  240906.219606 605674.888222 0  240241.856192 606891.125066 0  239891.734044 607841.012479 0  239048.653431 608724.889805 0  238118.054545 608974.895967 0  238888.111029 607337.406468 0  239738.119992 606212.362729 0  240288.12044 605687.4075229999 0  240380.212307 604729.521696 0  239347.309632 604603.204501 0  238888.112036 604387.408787 0  237913.11173 604687.401386 0  236784.172023 604499.882783 0  236883.408793 603717.08334 0  236154.933927 603595.565605 0  235688.103943 602912.369264 0  235763.108033 601662.366516 0  236363.110805 600412.35884 0  236738.107995 599162.356577 0  236525.607944 598482.2412899999 0  236138.109208 599362.357613 0  235725.063048 600325.4466510001 0  235091.948926 601408.5220979999 0  235188.10921 600312.366344 0  234375.602405 600833.9674270001 0  234663.109308 599912.358011 0  234138.105122 600062.365644 0  233955.307245 599029.561063 0  233338.103791 598387.401556 0  233988.09795 597862.356384 0  235138.101489 596637.3947750001 0  235563.1039 595387.392428 0  236513.103639 594212.356312 0  237163.10684 592987.3929869999 0  238313.103031 591862.3515540001 0  239513.107028 590812.3512640001 0  240638.102135 589787.387271 0  241463.109549 588587.378486 0  242294.489816 587443.735215 0  242913.101099 586512.341804 0  243544.066915 585474.859604 0  243040.448415 585184.975583 0  242438.10214 585337.38015 0  241313.102353 586562.339499 0  240538.107104 587787.382449 0  240114.641085 588588.939407 0  239388.100256 589437.382238 0  238188.104456 590512.346358 0  236938.100507 591362.349798 0  235813.10453 592537.396388 0  234864.502938 593178.7753880001 0  234463.097651 592862.357267 0  235113.0965 591662.3545979999 0  235713.101522 590412.346099 0  235777.688431 589976.7582779999 0  234943.583145 590706.265132 0  234462.482256 591490.2841159999 0  233801.497784 592112.940187 0  233388.099101 591787.394208 0  234013.093099 590437.393065 0  234776.217248 587148.7548100001 0  235163.093726 586562.3486189999 0  235313.098918 585483.229012 0  235250.59732 584662.298153 0  235588.093896 583337.379493 0  236329.432041 582199.858992 0  237188.096234 581462.3349939999 0  237463.088521 580212.335511 0  238350.592558 579057.652616 0  238591.415797 578574.847681 0  238313.094106 577612.328905 0  239229.696732 577695.769664 0  240195.161018 577513.008613 0  240614.996733 577149.8518770001 0  240663.091715 577412.332622 0  240288.092486 578662.334085 0  239942.357258 579508.095811 0  240438.100019 580212.3334220001 0  241338.095553 580387.375355 0  241238.099828 579137.369157 0  241788.097003 577887.370889 0  241983.554649 577241.9220939999 0  242054.178239 576927.8105029999 0  242588.100699 575737.366175 0  243149.324833 574898.583978 0  243695.278626 573919.517981 0  244268.494418 573724.8454239999 0  244995.134063 573930.2767810001 0  245417.314363 573391.601898 0  243450.599125 571859.479773 0  245776.797908 572599.8353060001 0  246779.639852 572973.285167 0  248034.741935 573186.082054 0  249413.10651 573162.3205520001 0  250496.922226 573271.1521899999 0  251613.105126 573237.3551319999 0  252421.824577 572846.032906 0  253256.245022 572580.4733130001 0  253739.471933 571960.9547369999 0  254174.511864 572149.8346569999 0  254484.944333 571684.194807 0  254384.108649 570891.346712 0  254344.002752 570218.26407 0  255025.609604 570829.0294979999 0  255715.005913 570489.264586 0  256218.846343 570774.828355 0  256834.349083 570508.5908 0  257390.092515 570014.308325 0  257624.431042 568493.478911 0  259355.811717 569380.021819 0  260033.372814 569617.066669 0  262679.741751 570320.699974 0  263289.115756 569524.817815 0  263463.114338 570512.301061 0  264638.198419 570687.3443539999 0  265058.220065 571334.378467 0  265447.561421 572077.90485 0  265488.125257 573137.3446020001 0  265131.937715 573963.293593 0  265432.389648 575093.068786 0  265638.122314 576338.029955 0  265750.630817 577371.8281319999 0  265738.570663 578561.9098850001 0  265875.630866 579139.630549 0  266213.129247 579862.311842 0  266563.130472 581112.314509 0  266238.135356 582362.310259 0  265938.12863 583612.320897 0  265738.131342 584762.3210189999 0  266875.638633 585365.358768 0  264018.7239399826 593650.4646671159 0  262236.3944351029 595831.1252656333 0  241846.246678 605206.1436625 0  240200.622106 608424.8903290001 0  240943.4862974102 610939.7757535663 0  236550.6094 599787.3577085 0  238528.1212051503 608102.9081793013 0  244413.4891967989 572609.5960859474 0  236382.0474488751 598808.3067022427 0  235369.601910944 600933.5380148316 0  235413.099011 591037.3503485 0  235446.2251831186 590266.6553871984 0  240475.5921005 578037.3333535 0  240413.173949154 577324.4280286073 0  240574.037899 606283.0066440001 0  263857.9179445 593618.2891454998 0  264153.4303974913 593343.916675058 0  242042.1833925 604946.7714812499 0  241650.3099635 605465.51584375 0  244613.6985165 572229.6575395 0  236631.8579695 598822.2989335 0  235140.029068 600860.444221 0  241767.7287175 604874.0596705 0  242140.15174975 604817.0853906251 0  234781.8558075 600573.1668855001 0  242091.167571125 604881.9284359375 0  234519.3558565 600373.162719 0  254604.8337712102 583989.0014118921 0  250699.5846056537 594617.3297041012 0  250540.4796469513 602258.2940568649 0  248483.7490186612 580334.7345534252 0  258549.2190328319 577893.951823392 0  257067.0067473103 590016.5327808241 0  243285.0921999099 596333.923437875 0  248333.1386145258 589098.0389905117 0  256142.8445072741 595883.3911551933 0  260245.1368072523 583315.2785712298 0  253472.3380211276 578932.2908163272 0  246432.3347504817 599884.5019511909 0  261555.9240922556 588041.186709004 0  247293.1100123104 605823.8307887657 0  246458.2798550911 593168.8646574575 0  252840.0183145193 588226.5564648228 0  249828.2874404451 584740.7888937403 0  255409.5660975206 600458.8956828594 0  260819.9733392385 574219.403683011 0  252584.2262054711 605722.6603825617 0  254049.8830611471 592547.4852571967 0  250015.4356193061 598425.2225922942 0  245872.072249477 577604.9761853142 0  262002.1583249522 579753.4663046852 0  257732.6630933878 586227.970805314 0  250242.5556457866 577017.3316409125 0  244921.6453001869 581816.6358421432 0  256520.3890639471 580904.824006648 0  240779.0970645865 599524.6679555867 0  257100.1829219198 574459.5922545703 0  239912.2630002034 595231.1172704464 0  244703.0875078634 590068.6945953515 0  242549.5490268674 592874.3693043783 0  251586.0465921376 581796.2215047925 0  246643.189997516 596527.447801719 0  251049.7658069622 591057.6752245198 0  253014.5731561695 596998.6601086652 0  238680.2197353724 584542.2309791476 0  259715.365803504 591937.1938619445 0  254097.157218761 575731.4494927844 0  246806.6408589328 586139.0877599345 0  246136.1179750556 602959.471719323 0  253520.7033332401 602835.180253843 0  244125.4295793909 607538.9817227355 0  252546.8895354472 599881.3279113505 0  258289.0983523553 600397.640191779 0  247518.7952199645 583037.3718217331 0  263140.3959879661 582529.2228421422 0  262894.8586894067 585442.3590432997 0  256968.6320599076 593040.7691844478 0  243573.0187527719 600218.2795730785 0  258888.5766127351 595139.7745218446 0  262588.7569809347 576734.8569237856 0  259318.4257992262 580601.2540325444 0  249963.3812725965 607065.7205847671 0  257494.5307999607 583482.5893534871 0  258906.4757205145 572278.8089438241 0  237751.446593475 587300.5805003279 0  255142.4708720699 604956.7580261135 0  258485.4978753244 597756.9250383095 0  255516.7820591553 587791.39641967 0  239758.4692108706 601926.8203218657 0  255873.0092222999 577739.5085867504
[...]
<PointData  Scalars="f_32-1"> 
<DataArray  type="Float64"  Name="f_32-1"  format="ascii">4.0704984817390141e+01  4.2057092385845458e+01  4.4128196251285338e+01  4.6151419333265842e+01  4.7655517170104169e+01  4.9544962214040993e+01  5.0171157500409429e+01  5.0163750624067916e+01  5.0518840053521870e+01  5.1964147980565741e+01  5.2996069040388214e+01  5.2438890810537472e+01  5.2076949171981354e+01  5.4143830690740366e+01  5.5404069824855391e+01  5.6503687562495827e+01  5.7797993739529730e+01  5.9009335314018507e+01  5.8429946977117787e+01  5.9400817583945148e+01  6.2045919632583924e+01  6.3762740939477020e+01  6.5559346808263740e+01  6.6404685639922334e+01  6.7020003351138925e+01  6.8577322757226199e+01  6.8960419408042966e+01  6.9954543534396564e+01  7.1543871807964791e+01  7.2445545081821308e+01  7.2618526543813275e+01  7.2905054408216813e+01  7.3729801988471323e+01  7.4504060920457320e+01  7.4666729117016530e+01  7.5653162348212874e+01  7.6995958277625292e+01  7.8424632513416284e+01  7.9589535622786045e+01  8.0375919840223403e+01  8.1552981016796565e+01  8.2696399117280151e+01  8.3696774923199825e+01  8.4548110539869100e+01  8.5308816193177421e+01  8.5459562857610578e+01  8.5812727484043947e+01  8.6258502489302046e+01  8.6685691836519112e+01  8.6973824979521197e+01  8.7086304930071080e+01  8.7188823020834178e+01  8.7107670831139487e+01  8.7135443008537834e+01  8.7487138002916026e+01  8.7443131200090747e+01  8.7424766483737940e+01  8.7593022016405726e+01  8.7168744693766655e+01  8.6369560757174710e+01  8.5574071253221732e+01  8.4842903124663067e+01  8.3788602424898968e+01  8.2141941509984093e+01  8.1862908942232380e+01  8.3837035971838091e+01  8.4359435375911346e+01  8.4461527088423082e+01  8.4690543244378730e+01  8.4975924635636218e+01  8.5301249610192130e+01  8.6315130675198674e+01  8.6786698663893887e+01  8.7232697526689009e+01  8.7373136077728162e+01  8.6844148911844385e+01  8.6149597906563727e+01  8.5589473771469571e+01  8.4984733817383770e+01  8.5403499665783926e+01  8.5714145664316177e+01  8.6167770835967687e+01  8.6330716694219745e+01  8.6295842869005284e+01  8.6386021799002961e+01  8.6373459666122969e+01  8.6048590824825851e+01  8.5153880232322010e+01  8.3806565092754937e+01  8.3650601636903531e+01  8.5066061019521271e+01  8.5791946732731375e+01  8.6063525573714443e+01  8.5897765379668598e+01  8.6114694831950459e+01  8.5918125724432244e+01  8.5972454212792968e+01  8.5783114049447661e+01  8.5713963858002487e+01  8.5375973363996209e+01  8.3092105905634881e+01  8.0631565703281609e+01  7.7242342199046192e+01  7.4034646233028923e+01  7.0853302679767964e+01  6.8614331359073972e+01  6.7078480378405573e+01  6.5704432075174523e+01  6.4237966955951705e+01  6.2921671682272304e+01  6.1395752411408417e+01  6.1358765170940458e+01  6.2167372548039744e+01  6.4263165217882303e+01  6.5765632542909401e+01  6.6508094926599583e+01  6.7386681290016725e+01  6.8993156464564763e+01  7.1412461977185004e+01  7.5099752749902009e+01  7.6671301092768445e+01  7.6696471841196526e+01  7.4529165201938568e+01  7.1517877663607479e+01  7.1065108241857416e+01  7.3604476813595369e+01  7.5639550821771152e+01  7.6596349511035115e+01  7.6635797069654870e+01  7.4174707363215930e+01  6.9073638744179860e+01  6.8362242308972739e+01  6.7400719252739279e+01  6.6903448506641723e+01  6.5950609614702103e+01  6.4665600935861434e+01  6.3296686497176459e+01  6.2043475857099565e+01  6.0746148275497973e+01  6.0169164292029713e+01  5.9847395363045550e+01  5.9560337324420040e+01  5.8832906847337121e+01  5.8615754002602273e+01  5.8642110135359616e+01  5.9432431593705743e+01  6.0239721430266705e+01  6.0391537450202826e+01  5.9512064932451516e+01  5.8491158585638466e+01  5.7279125013026565e+01  5.6572633625363927e+01  5.6268664121306102e+01  5.4714989804410230e+01  5.3216628872061314e+01  5.1646732160076354e+01  5.1152016233489654e+01  5.0084074368114230e+01  4.8670928009106760e+01  4.9226655199400682e+01  4.8123236018408328e+01  4.7141209320841945e+01  4.5425622995914594e+01  4.3392358675539164e+01  4.2054787183975677e+01  4.0584128542432879e+01  3.9333470155211309e+01  3.8067429136963369e+01  3.7256520615462676e+01  3.6818159609723473e+01  3.5773978479907129e+01  3.4997193592779517e+01  3.4814843412843800e+01  3.4712353480467854e+01  3.3956008674271295e+01  3.3524564185724323e+01  3.2496236620703769e+01  3.0977235880728692e+01  3.4330305751555919e+01  3.0473732557821883e+01  3.0960139591800367e+01  3.2570163723561762e+01  3.2171237710646523e+01  3.3699449531365971e+01  3.2085998039014413e+01  3.1345996990248448e+01  3.1187019009718330e+01  3.1623145512214379e+01  3.2250470299026262e+01  3.2961988092137673e+01  3.3764024253727115e+01  3.4733458448251042e+01  3.6013217993455150e+01  3.6275102078893994e+01  3.6425938979025524e+01  3.7690075652102351e+01  4.0091550252331238e+01  4.0916107752902242e+01  4.0083510729504496e+01  4.0040496362431597e+01  5.2852760520174975e+01  5.9004916251923859e+01  8.4343534300687693e+01  8.6798466423836743e+01  8.7431492395473029e+01  8.4508157748820054e+01  8.7188758974029668e+01  4.8868290423341421e+01  8.4365608455735824e+01  8.6007015500274576e+01  7.2955678794458933e+01  7.2026847719210608e+01  5.8959157950284798e+01  5.8661654900510293e+01  8.5883472642690379e+01  5.2853610649713922e+01  5.2521527043148090e+01  8.4073328614349307e+01  8.4605614311878583e+01  4.8865929417713517e+01  8.3510810708390892e+01  8.6006281628838749e+01  8.4505648493711519e+01  8.3933907176249392e+01  8.6055652128942214e+01  8.4004259121311293e+01  8.6055801506614756e+01  4.9703119185304345e+01  6.7062212940623965e+01  7.5287693454603883e+01  5.2574789531176570e+01  3.8126186889987423e+01  5.5594929797567190e+01  7.4265713199792685e+01  6.1567157918999399e+01  6.3848281410622491e+01  4.1935073356192682e+01  4.5293968720030271e+01  7.6036694914978497e+01  4.6090177020095410e+01  8.1187030429377003e+01  6.7816889338945956e+01  5.7252569201681325e+01  5.6572562883316792e+01  6.9955346633228714e+01  3.3672886397944339e+01  7.7153359368444285e+01  6.1626875069342368e+01  7.2075487129806987e+01  5.2404473179145235e+01  3.7833821583052163e+01  4.8804586370602536e+01  4.5732080507063984e+01  5.7725551448454638e+01  4.3345800083452346e+01  8.0281125348472102e+01  3.6628341691146765e+01  7.4677079977427269e+01  6.6280216903988332e+01  6.9123618630765947e+01  5.0270684426197555e+01  7.2072908327576840e+01  6.2579424195046599e+01  6.8332365788331472e+01  6.4653300213365114e+01  5.5525062365342954e+01  3.9598330043661996e+01  5.9405068146590615e+01  7.9244635075468651e+01  7.3956162097611880e+01  8.4748611995502941e+01  7.1541988646433239e+01  6.9085444512977375e+01  5.5874214614961431e+01  3.9629708954590185e+01  4.1010457161691470e+01  5.9903863246162558e+01  7.8290894271554066e+01  6.0227058409659890e+01  3.5023681358473326e+01  4.0011617148797825e+01  8.0418019776400882e+01  4.5364751408610282e+01  3.1269535202931468e+01  6.7063480968733174e+01  7.5072193275004750e+01  6.4621080841155958e+01  5.3810573915511192e+01  8.5125056793390172e+01  4.0200426764422254e+01  5.0229629084246668e+01  6.0519008067193141e+01  6.5546370182717411e+01  5.6357470607828517e+01  4.7093402953164841e+01  4.3147155133424974e+01  5.8211585034101013e+01  4.8342538518967828e+01  4.7830025891598787e+01  4.4122983566930785e+01  5.0210281101862719e+01  8.3780243514344207e+01  7.7684247985993053e+01  5.2710358996627235e+01  8.2384159808696481e+01  7.5058199579009155e+01  7.5522675509516489e+01  7.9706858117128149e+01  6.2290619824792188e+01  5.8590782250941849e+01  6.7481307814894038e+01  7.1765583688219920e+01  5.8019758487676320e+01  7.7829559750132049e+01  5.3283040146686851e+01  6.5107848222666661e+01  3.2074537895299343e+01  5.1036046861184012e+01  6.8842440653329660e+01  7.6461105963738945e+01  6.6021620802018006e+01  7.0080499574414858e+01  6.2487989705402612e+01  7.0467920802099229e+01  3.6506740996552722e+01  5.5349304286972242e+01  5.2902585259052145e+01  7.9044067657555416e+01  6.8487016981997215e+01  3.7817378093375744e+01  7.8533131780631919e+01  6.3507976676077412e+01  8.3862038218126528e+01  3.3150380215216096e+01  8.3991392676644168e+01  8.3940470384126556e+01  5.5082602223438812e+01  5.0551504617426467e+01  8.4029843304380393e+01  8.5074117321623461e+01  8.2198483334832346e+01  8.4637118099035845e+01  7.1142755065948293e+01  3.5986797050358952e+01  8.0115323927581755e+01  7.5037033670235104e+01  5.5953242149114253e+01  5.0141431328844064e+01  4.6559046661965901e+01  8.4720961038650444e+01  8.3967139605901608e+01  5.7777793708501640e+01  8.5238099439955079e+01  8.3067495120484665e+01  8.3506954631404739e+01  8.5315462546756024e+01  5.9916983621925290e+01  4.8658016397290737e+01  7.0340950221904478e+01  3.3965126005880229e+01  4.8404855608268250e+01  3.7473768470251514e+01  6.8448253278105724e+01  8.6516486279793980e+01  6.6160754443287885e+01  7.2481614791789994e+01  8.2831052073869728e+01  6.1154932255194588e+01  3.0486091005020214e+01  7.1533875342574490e+01  3.9750473424092711e+01  5.1851127584373025e+01  8.4329428367037949e+01  8.2388870822315809e+01  6.1352465516299205e+01  8.6527407909746600e+01  4.4190474924909431e+01  8.4903823329449025e+01  6.3196108334816344e+01  3.2228931791267769e+01  3.6139173662111425e+01  3.7336636152227996e+01  7.2119587813298111e+01  8.1177292331618418e+01  8.0334483558228072e+01  6.8062370897555809e+01  8.4467811580398546e+01  5.9284896374001534e+01  4.8572582239200379e+01  4.8539659421233196e+01  3.2186994638291615e+01  8.4038399736272339e+01  8.4209321334389102e+01  8.4272342523030602e+01  7.4748216510072325e+01  8.0865049764502700e+01  8.4425091120864224e+01  8.2866625602833736e+01  6.6356656608238822e+01  8.7330334324094665e+01  8.7214043189528084e+01  6.0921213976605500e+01  3.5220466743052881e+01  6.0335437612373489e+01  8.1344983169499244e+01  5.5405315848979384e+01  6.4149528969497894e+01  8.6798624133817668e+01  6.2640879535404942e+01  7.2748340549817598e+01  4.0670400317048937e+01  5.6287303793808860e+01  5.5538884470728036e+01  5.6827965031993571e+01  8.5366197724259507e+01  4.9967181911681578e+01  5.1050151006084988e+01  4.8923893437319400e+01  5.0882822771235254e+01  4.6933269432082284e+01  3.2816286839875708e+01  3.0600491053601239e+01  5.1723539530334001e+01  5.4769977876042795e+01  7.6132146855841867e+01  7.5993410714691677e+01  8.7017238290889509e+01  6.6467530054109218e+01  6.4607845061646245e+01  6.0502217628436647e+01  6.0145024053695430e+01  6.0684297389027172e+01  6.1711574068071968e+01  6.0758762326606039e+01  6.1357446258603325e+01  6.3251430873830692e+01  6.1655364063966495e+01  6.2382901858692648e+01  6.4375187214531167e+01  6.3356292466776644e+01  5.8459164117621732e+01  6.0039559443216490e+01  4.4348972381139227e+01  4.6343139299316690e+01  4.4525887376913857e+01  4.2708264981984335e+01  4.3555920766910461e+01  4.1348438166140873e+01  4.2893021422718732e+01  4.2220345123122044e+01  3.8885727714833784e+01  3.7671185279702001e+01  3.3747266024529310e+01  3.4206820031827156e+01  3.4285154155738489e+01  3.5425426548406286e+01  3.4887738619353186e+01  3.6203716567365746e+01  3.6611577090303932e+01  3.5732712828842757e+01  3.6362051194241047e+01  3.6684981770002544e+01  3.7116845964503000e+01  3.6650859539152805e+01  3.7622824546083251e+01  4.0919666191165703e+01  3.8910763329116264e+01  4.9829952065060169e+01  4.6517291287479509e+01  4.7592714474159720e+01  5.1639198495662527e+01  6.9924825649187667e+01  6.7792082196946708e+01  6.6261100671040140e+01  6.8059042374602456e+01  7.3487443505883135e+01  7.6486521797232143e+01  7.5249490233107892e+01  7.6548599833355809e+01  5.5073198336499132e+01  5.0320720748453454e+01  5.2159122503007978e+01  5.4673097034609448e+01  3.8113041487172637e+01  3.9801721129204751e+01  3.7435766261008432e+01  3.8744146942973195e+01  3.8396609684665592e+01  3.7876079484328812e+01  5.5337372318125979e+01  5.8639669058629934e+01  5.4546334374931064e+01  5.6936380987556007e+01  5.2926319701529586e+01  7.4965952277999747e+01  7.2399828006726509e+01  6.2305823763886593e+01  6.0404795615082840e+01  6.3728635734596985e+01  5.9835150387241235e+01  6.3349397369679046e+01  6.1957344261509689e+01  6.2920310607559500e+01  6.6169199974451075e+01  6.4549556806175076e+01  3.9642259612595964e+01  4.0279193978363963e+01  4.1364252410537198e+01  4.1182175181664299e+01  4.4755735963600038e+01  4.4192376590010234e+01  4.8136900539919104e+01  4.2031920361189847e+01  4.2579836567184358e+01  4.6226423764056733e+01  4.7168264675938779e+01  7.4293825188785476e+01  7.7697690782582796e+01  7.6136334319314500e+01  7.7907630159447791e+01  8.0245323524116941e+01  6.9648717489971588e+01  6.7277717373810859e+01  6.8779972610646752e+01  6.8415487583673226e+01  5.5601002400518809e+01  5.8211110312717864e+01  5.7445676748990955e+01  5.5027250706993883e+01  7.2082567237968320e+01  7.0278210301892088e+01  6.9525908828656370e+01  6.8428740950541169e+01  3.5086163382091726e+01  3.3719619309222736e+01  6.1674533808706428e+01  6.1262838464473525e+01  5.9925307979889233e+01  7.1971003116118425e+01  7.0397543245351685e+01  7.3701890863250313e+01  7.0781998680448851e+01  5.4446232001395948e+01  5.0381011661181923e+01  5.1628072437359322e+01  5.3094740666517815e+01  5.0624262518886262e+01  5.2246762612454326e+01  3.8445493407238246e+01  3.6970385053203401e+01  3.8840402802087709e+01  3.7231330660106686e+01  3.7786427276452507e+01  3.7891852701976568e+01  4.7046195320477800e+01  5.1596241498401099e+01  4.9426123881276652e+01  5.1883337888764252e+01  4.2133906966265869e+01  4.6976609270167714e+01  4.6742385590557753e+01  4.8250530853725472e+01  4.2546715438057717e+01  4.4935048620261895e+01  5.8348163650612847e+01  5.8939859381841750e+01  5.6741899899610608e+01  5.7934602046430896e+01  4.1406839365660652e+01  4.4331683019745313e+01  4.1535819979644280e+01  4.5251377597636413e+01  3.8379263076902497e+01  3.4649870446463353e+01  3.8432969500786498e+01  3.6511572296072899e+01  3.6286920970623065e+01  3.5384459255142062e+01  3.7210038311387088e+01  6.7078457370886639e+01  6.3912919083191568e+01  6.8128829408370279e+01  6.6207049382708746e+01  6.9775321572368497e+01  4.8758160070651925e+01  4.9417774373946237e+01  7.0284159042117892e+01  6.4264269454964435e+01  6.0455543065097942e+01  6.0202207604717174e+01  6.2941210134797338e+01  7.0030929352270974e+01  6.7900714466231648e+01  6.3518462827141299e+01  6.3671998578825267e+01  5.7486442528708174e+01  5.2704465387298967e+01  4.0788190476383669e+01  3.9116725102324338e+01  3.8081766826702484e+01  5.8735012747052579e+01  6.0968425821811216e+01  7.7374135161285722e+01  7.8531464503270840e+01  7.2695286022096695e+01  7.5764562138533392e+01  7.2775975450689813e+01  7.3327304319103959e+01  6.9227278156070255e+01  6.7816810108874762e+01  5.8869546113564589e+01  3.8710090338550259e+01  5.9813887523885370e+01  5.8478303959280616e+01  3.5323295262040141e+01  3.6988865496015357e+01  3.5247934236410281e+01  4.2535968462131748e+01  4.4813065301497609e+01  5.5904553878273887e+01  5.2379183602535036e+01  5.3621888552555212e+01  5.0163399422549709e+01  6.0189129945964922e+01  6.0819932423651153e+01  6.0733442396468263e+01  6.1561488460286760e+01  6.5256860681614285e+01  6.4749165356455066e+01  5.5279190101242378e+01  4.9863129091179204e+01  4.9506338644919381e+01  5.0651165081687274e+01  4.9144224986279021e+01  4.5926886876407579e+01  4.6974420813594364e+01  5.5850365075157008e+01  5.2880764795107240e+01  7.6612612959310496e+01  5.5637905004072252e+01  5.2804089258637731e+01  6.3896563320250344e+01  6.8598640846631653e+01  6.8723396742054547e+01  6.7366988301647183e+01  3.7674252179685816e+01  3.3960028476446936e+01  3.6810565172306113e+01  6.0521894393313410e+01  3.6803620229548969e+01  6.1877335845489640e+01  4.2088363708171926e+01  3.8163982293378510e+01  6.1781259699973937e+01  5.0883990491683420e+01  6.9067135083300016e+01  3.8221968260470057e+01  3.8585557622217117e+01  3.7796612916803511e+01  3.8149049293950789e+01  3.7626000842171578e+01  6.2671283888321888e+01  4.5178424600666659e+01  4.7115406740975793e+01  4.6505540377584033e+01  7.6960048712599729e+01  6.0045208893334035e+01  5.6513665120847840e+01  5.6087343704457957e+01  5.6246876468297344e+01  3.5045777371657316e+01  7.1068834694554383e+01  7.1480563571999156e+01  3.8624932983698095e+01  3.8090742330070370e+01  4.9435010638052923e+01  5.0504026217342471e+01  4.3797693265678888e+01  5.9127893244022829e+01  6.2624321271657756e+01  6.3536986231576272e+01  6.1513019500553177e+01  6.3698709407223753e+01  4.0679470626682260e+01  3.9049694412617264e+01  3.9185105734105178e+01  3.8809073960952375e+01  7.0380038321082168e+01  3.9334300950749054e+01  4.0666715443027023e+01  4.1291730939342585e+01  5.4152925909781743e+01  5.4727208952636332e+01  5.4850957973477549e+01  5.3152153763545073e+01  4.1477905104782977e+01  3.9203880349337567e+01  4.0639003909485410e+01  5.1361986486113757e+01  7.5048342845006729e+01  7.5941771422765513e+01  7.6602742407868035e+01  6.2536713083424978e+01  6.8284544661915078e+01  5.4438911844902258e+01  5.1764778643599193e+01  5.0452098395151495e+01  5.2250253716279367e+01  6.7544899190780527e+01  6.2195804462444528e+01  6.2996971208448748e+01  3.7631907700012718e+01  3.7383804584031466e+01  3.6625113770802102e+01  5.3801063500661748e+01  5.7071027983286079e+01  5.8096231442508120e+01  5.3629852674616480e+01  6.8757809629936915e+01  3.6814824944526571e+01  3.7588722473352334e+01  3.7344821132864723e+01  6.1760289361013953e+01  6.1338506298295080e+01  6.1512408799822161e+01  4.3396724822544911e+01  4.4556117838997359e+01  4.5032361565543404e+01  3.7723762983241208e+01  3.5548573013390985e+01  3.6124419416129832e+01  6.2500513820585063e+01  6.3507370979810261e+01  6.2981386162247354e+01  6.2099945929145079e+01  6.2259931848220049e+01  6.2212734022310862e+01  6.2121807397198360e+01  4.5196927287332073e+01  3.6271855137909569e+01  5.0922396953095920e+01  7.0386486344571736e+01  5.3091344951577504e+01  5.2692372186383267e+01  3.8037470902687730e+01  3.8986967888036851e+01  3.8863842957159108e+01  3.9840090783642346e+01  3.9596242522075805e+01  3.8305579801810858e+01  5.3919172349848424e+01  5.3534059944450441e+01  5.2698153503673524e+01  6.3484053648858769e+01  6.2840169985462055e+01  3.8955189770755574e+01  3.9312222070306007e+01  4.3159454648059040e+01  4.3195928003612657e+01  4.7844575087380782e+01  4.1758685595638980e+01  4.2062558640266623e+01  4.1647713490374478e+01  4.8328557120270339e+01  7.6880790412701984e+01  5.5797935945876546e+01  5.7057907277705013e+01  5.5309253504851036e+01  6.9178903874701632e+01  6.9658032309848053e+01  6.8651546850515871e+01  5.2285160283475271e+01  5.4189652903763296e+01  5.2743159781396507e+01  4.5401717934665939e+01  5.9350194660539032e+01  5.6260186332429171e+01  3.9655322362686384e+01  3.8303508436644151e+01  6.7989350325139981e+01  6.8081991073343247e+01  6.8639654752110005e+01  3.8455847858311699e+01  3.6962888089690068e+01  </DataArray> 
</PointData> 
</Piece>
</UnstructuredGrid>
</VTKFile>