<?xml version="1.0"?>
<VTKFile type="UnstructuredGrid"  version="0.1"  >
<UnstructuredGrid>
<Piece  NumberOfPoints="784" NumberOfCells="1320">
<Points>
<DataArray  type="Float64"  NumberOfComponents="3"  format="ascii">266913.131276 586512.314988 0  266738.13716 587762.325998 0  266363.132677 589012.328643 0  266175.641078 590169.601714 0  265666.575631 591040.7699119999 0  264875.64001 591687.766419 0  264900.636161 591845.049083 0  266088.14152 592012.3229499999 0  265561.959259 592661.17101 0  264288.136855 593037.368683 0  263865.194033 593999.8486949999 0  263850.641856 593236.729596 0  263625.634872 592756.525286 0  262689.574249 593299.848918 0  262475.636737 594003.0907310001 0  261934.554452 594340.929792 0  261725.631329 594932.094409 0  261729.256443 595728.498809 0  262138.136044 595012.330523 0  262288.141035 596262.333669 0  261488.994028 597511.480605 0  261234.15567 598316.338928 0  260815.635063 599014.863821 0  261400.643658 599389.7367680001 0  261322.963374 600022.185065 0  261119.455248 600931.061306 0  261607.436504 601293.0629359999 0  260807.446929 602089.899812 0  260025.642878 602988.868697 0  259613.135827 603937.3854499999 0  259050.643123 604100.987861 0  258411.880065 603988.6335979999 0  257764.357469 604449.872569 0  257971.239668 605320.429125 0  258041.396867 605740.635381 0  257188.143339 606987.394312 0  256038.141198 608112.3554550001 0  254788.141633 609087.4026939999 0  253588.140656 609812.362881 0  252338.135706 609737.4048949999 0  251088.138116 609787.404055 0  249963.12851 610287.399466 0  248613.130524 610462.365857 0  247363.132198 610687.407659 0  246113.130532 610837.411551 0  245832.347438 610918.209918 0  245016.946433 610958.5639439999 0  244313.129646 610762.372259 0  244400.622144 611378.093316 0  243939.669208 612460.8930899999 0  242960.649733 611984.892792 0  242170.381438 611919.647351 0  241888.122919 611112.375656 0  241393.380757 610467.6456149999 0  240594.157528 611306.369822 0  240525.621947 610804.648112 0  240363.123632 610512.3745050001 0  239113.123247 610262.374278 0  239813.12126 609037.412459 0  240588.122952 607812.368199 0  241013.119545 606625.9534560001 0  241454.373249 605724.888025 0  242238.120107 604687.3993 0  243088.121248 603462.362766 0  242860.319451 603007.3932640001 0  241563.116617 603812.361344 0  241778.400913 604327.642217 0  242059.837234 604824.879102 0  241475.620201 604923.2402390001 0  241462.182234 605449.881372 0  240906.219606 605674.888222 0  240241.856192 606891.125066 0  239891.734044 607841.012479 0  239048.653431 608724.889805 0  238118.054545 608974.895967 0  238888.111029 607337.406468 0  239738.119992 606212.362729 0  240288.12044 605687.4075229999 0  240380.212307 604729.521696 0  239347.309632 604603.204501 0  238888.112036 604387.408787 0  237913.11173 604687.401386 0  236784.172023 604499.882783 0  236883.408793 603717.08334 0  236154.933927 603595.565605 0  235688.103943 602912.369264 0  235763.108033 601662.366516 0  236363.110805 600412.35884 0  236738.107995 599162.356577 0  236525.607944 598482.2412899999 0  236138.109208 599362.357613 0  235725.063048 600325.4466510001 0  235091.948926 601408.5220979999 0  235188.10921 600312.366344 0  234375.602405 600833.9674270001 0  234663.109308 599912.358011 0  234138.105122 600062.365644 0  233955.307245 599029.561063 0  233338.103791 598387.401556 0  233988.09795 597862.356384 0  235138.101489 596637.3947750001 0  235563.1039 595387.392428 0  236513.103639 594212.356312 0  237163.10684 592987.3929869999 0  238313.103031 591862.3515540001 0  239513.107028 590812.3512640001 0  240638.102135 589787.387271 0  241463.109549 588587.378486 0  242294.489816 587443.735215 0  242913.101099 586512.341804 0  243544.066915 585474.859604 0  243040.448415 585184.975583 0  242438.10214 585337.38015 0  241313.102353 586562.339499 0  240538.107104 587787.382449 0  240114.641085 588588.939407 0  239388.100256 589437.382238 0  238188.104456 590512.346358 0  236938.100507 591362.349798 0  235813.10453 592537.396388 0  234864.502938 593178.7753880001 0  234463.097651 592862.357267 0  235113.0965 591662.3545979999 0  235713.101522 590412.346099 0  235777.688431 589976.7582779999 0  234943.583145 590706.265132 0  234462.482256 591490.2841159999 0  233801.497784 592112.940187 0  233388.099101 591787.394208 0  234013.093099 590437.393065 0  234776.217248 587148.7548100001 0  235163.093726 586562.3486189999 0  235313.098918 585483.229012 0  235250.59732 584662.298153 0  235588.093896 583337.379493 0  236329.432041 582199.858992 0  237188.096234 581462.3349939999 0  237463.088521 580212.335511 0  238350.592558 579057.652616 0  238591.415797 578574.847681 0  238313.094106 577612.328905 0  239229.696732 577695.769664 0  240195.161018 577513.008613 0  240614.996733 577149.8518770001 0  240663.091715 577412.332622 0  240288.092486 578662.334085 0  239942.357258 579508.095811 0  240438.100019 580212.3334220001 0  241338.095553 580387.375355 0  241238.099828 579137.369157 0  241788.097003 577887.370889 0  241983.554649 577241.9220939999 0  242054.178239 576927.8105029999 0  242588.100699 575737.366175 0  243149.324833 574898.583978 0  243695.278626 573919.517981 0  244268.494418 573724.8454239999 0  244995.134063 573930.2767810001 0  245417.314363 573391.601898 0  243450.599125 571859.479773 0  245776.797908 572599.8353060001 0  246779.639852 572973.285167 0  248034.741935 573186.082054 0  249413.10651 573162.3205520001 0  250496.922226 573271.1521899999 0  251613.105126 573237.3551319999 0  252421.824577 572846.032906 0  253256.245022 572580.4733130001 0  253739.471933 571960.9547369999 0  254174.511864 572149.8346569999 0  254484.944333 571684.194807 0  254384.108649 570891.346712 0  254344.002752 570218.26407 0  255025.609604 570829.0294979999 0  255715.005913 570489.264586 0  256218.846343 570774.828355 0  256834.349083 570508.5908 0  257390.092515 570014.308325 0  257624.431042 568493.478911 0  259355.811717 569380.021819 0  260033.372814 569617.066669 0  262679.741751 570320.699974 0  263289.115756 569524.817815 0  263463.114338 570512.301061 0  264638.198419 570687.3443539999 0  265058.220065 571334.378467 0  265447.561421 572077.90485 0  265488.125257 573137.3446020001 0  265131.937715 573963.293593 0  265432.389648 575093.068786 0  265638.122314 576338.029955 0  265750.630817 577371.8281319999 0  265738.570663 578561.9098850001 0  265875.630866 579139.630549 0  266213.129247 579862.311842 0  266563.130472 581112.314509 0  266238.135356 582362.310259 0  265938.12863 583612.320897 0  265738.131342 584762.3210189999 0  266875.638633 585365.358768 0  264018.7239399826 593650.4646671159 0  262236.3944351029 595831.1252656333 0  241846.246678 605206.1436625 0  240200.622106 608424.8903290001 0  240943.4862974102 610939.7757535663 0  236550.6094 599787.3577085 0  238528.1212051503 608102.9081793013 0  244413.4891967989 572609.5960859474 0  236382.0474488751 598808.3067022427 0  235369.601910944 600933.5380148316 0  235413.099011 591037.3503485 0  235446.2251831186 590266.6553871984 0  240475.5921005 578037.3333535 0  240413.173949154 577324.4280286073 0  240574.037899 606283.0066440001 0  263857.9179445 593618.2891454998 0  264153.4303974913 593343.916675058 0  242042.1833925 604946.7714812499 0  241650.3099635 605465.51584375 0  244613.6985165 572229.6575395 0  236631.8579695 598822.2989335 0  235140.029068 600860.444221 0  241767.7287175 604874.0596705 0  242140.15174975 604817.0853906251 0  234781.8558075 600573.1668855001 0  242091.167571125 604881.9284359375 0  234519.3558565 600373.162719 0  254604.8337712102 583989.0014118921 0  250699.5846056537 594617.3297041012 0  250540.4796469513 602258.2940568649 0  248483.7490186612 580334.7345534252 0  258549.2190328319 577893.951823392 0  257067.0067473103 590016.5327808241 0  243285.0921999099 596333.923437875 0  248333.1386145258 589098.0389905117 0  256142.8445072741 595883.3911551933 0  260245.1368072523 583315.2785712298 0  253472.3380211276 578932.2908163272 0  246432.3347504817 599884.5019511909 0  261555.9240922556 588041.186709004 0  247293.1100123104 605823.8307887657 0  246458.2798550911 593168.8646574575 0  252840.0183145193 588226.5564648228 0  249828.2874404451 584740.7888937403 0  255409.5660975206 600458.8956828594 0  260819.9733392385 574219.403683011 0  252584.2262054711 605722.6603825617 0  254049.8830611471 592547.4852571967 0  250015.4356193061 598425.2225922942 0  245872.072249477 577604.9761853142 0  262002.1583249522 579753.4663046852 0  257732.6630933878 586227.970805314 0  250242.5556457866 577017.3316409125 0  244921.6453001869 581816.6358421432 0  256520.3890639471 580904.824006648 0  240779.0970645865 599524.6679555867 0  257100.1829219198 574459.5922545703 0  239912.2630002034 595231.1172704464 0  244703.0875078634 590068.6945953515 0  242549.5490268674 592874.3693043783 0  251586.0465921376 581796.2215047925 0  246643.189997516 596527.447801719 0  251049.7658069622 591057.6752245198 0  253014.5731561695 596998.6601086652 0  238680.2197353724 584542.2309791476 0  259715.365803504 591937.1938619445 0  254097.157218761 575731.4494927844 0  246806.6408589328 586139.0877599345 0  246136.1179750556 602959.471719323 0  253520.7033332401 602835.180253843 0  244125.4295793909 607538.9817227355 0  252546.8895354472 599881.3279113505 0  258289.0983523553 600397.640191779 0  247518.7952199645 583037.3718217331 0  263140.3959879661 582529.2228421422 0  262894.8586894067 585442.3590432997 0  256968.6320599076 593040.7691844478 0  243573.0187527719 600218.2795730785 0  258888.5766127351 595139.7745218446 0  262588.7569809347 576734.8569237856 0  259318.4257992262 580601.2540325444 0  249963.3812725965 607065.7205847671 0  257494.5307999607 583482.5893534871 0  258906.4757205145 572278.8089438241 0  237751.446593475 587300.5805003279 0  255142.4708720699 604956.7580261135 0  258485.4978753244 597756.9250383095 0  255516.7820591553 587791.39641967 0  239758.4692108706 601926.8203218657 0  255873.0092222999 577739.5085867504
[...]
<PointData  Scalars="f_32-1"> 
<DataArray  type="Float64"  Name="f_32-1"  format="ascii">4.1345964502502042e+01  4.2668827927475704e+01  4.4705509431722440e+01  4.6551318282210659e+01  4.7897959358292916e+01  4.9952339211046329e+01  5.0629372224079816e+01  5.1047614663084886e+01  5.1104664166037729e+01  5.1835622134861310e+01  5.2328132621259741e+01  5.2107923773836141e+01  5.2212993570630822e+01  5.4657886509087270e+01  5.6074124385915198e+01  5.7258871302267174e+01  5.8733042249329507e+01  6.0201956494907712e+01  6.0130349585843469e+01  6.0605550064196073e+01  6.2842948047611301e+01  6.4597261796376756e+01  6.6551691325861086e+01  6.7581040848603209e+01  6.8135695119694091e+01  6.9469382965666739e+01  6.9855254203744877e+01  7.0610040478709479e+01  7.1992630657149789e+01  7.2802249923553291e+01  7.2978075894784396e+01  7.3393405919842394e+01  7.4477841011426548e+01  7.5394958180216108e+01  7.5570177655612625e+01  7.6486338296842760e+01  7.7761158781800276e+01  7.9112703041544890e+01  8.0086891343375314e+01  8.0895428938462459e+01  8.2110118218208129e+01  8.3251089476735402e+01  8.4266762077218516e+01  8.5150947668788632e+01  8.5933609197723683e+01  8.6097556707898150e+01  8.6516626940073991e+01  8.7061373693419782e+01  8.7498528084953264e+01  8.7704171059777025e+01  8.7747149264592267e+01  8.7788384523826679e+01  8.7768836177975047e+01  8.7853896434904584e+01  8.8076755164809597e+01  8.8059255985132737e+01  8.8062395147967337e+01  8.8156305589614092e+01  8.7911615485842731e+01  8.7167010321380531e+01  8.6339190895966439e+01  8.5659623408591628e+01  8.4577448898677275e+01  8.2820906041540255e+01  8.2622385355385788e+01  8.4825803927561580e+01  8.5393817236218979e+01  8.5523472718563994e+01  8.5678059461628763e+01  8.5895274583278720e+01  8.6181210273763782e+01  8.7243492654399162e+01  8.7658022527505310e+01  8.7906882855831228e+01  8.7964531031677097e+01  8.7688440762548225e+01  8.7071038129926734e+01  8.6466469658159497e+01  8.5850315629191385e+01  8.6241584134006274e+01  8.6554954263157597e+01  8.6983617472556915e+01  8.7104485584038670e+01  8.7098526812259024e+01  8.7146630962915893e+01  8.7121143126416101e+01  8.6838311887120071e+01  8.5934431489191127e+01  8.4439562200532023e+01  8.4273924601449565e+01  8.5770569843195659e+01  8.6416194613804180e+01  8.6609657830433818e+01  8.6463698689888602e+01  8.6554074809077804e+01  8.6399127211964654e+01  8.6388284193338308e+01  8.6187905557004882e+01  8.6101610407984253e+01  8.5810516432586780e+01  8.3525537915222287e+01  8.1109116428675350e+01  7.7992242221408347e+01  7.5011278888500726e+01  7.2155399260037896e+01  6.9794437105378563e+01  6.7972120202307593e+01  6.6373495161235553e+01  6.4678109547580888e+01  6.3170295146878679e+01  6.1244740853596781e+01  6.0558066569580554e+01  6.0972718773000985e+01  6.3940823544867619e+01  6.6239076081024081e+01  6.7164158461397420e+01  6.8119538731158443e+01  6.9815527797789215e+01  7.2170062528726291e+01  7.4983355012783889e+01  7.5805306952191700e+01  7.5814420798668849e+01  7.4580417255763393e+01  7.2222757358070652e+01  7.1805835838380148e+01  7.3925120486070583e+01  7.5374018844807111e+01  7.5876617262972800e+01  7.5881815212360081e+01  7.4325390667181807e+01  6.9572415382015137e+01  6.8851510769500464e+01  6.7791121331221461e+01  6.7215701583479373e+01  6.6304992593601895e+01  6.5158819227528411e+01  6.3781892507926607e+01  6.2461407138163686e+01  6.1276007574367640e+01  6.0769286345778518e+01  6.0470305421440472e+01  6.0354615255114929e+01  6.0013060127984936e+01  5.9912728551213668e+01  5.9924710723215242e+01  6.0377764429166362e+01  6.1037526134495472e+01  6.1134571776690990e+01  5.9936572387002805e+01  5.8651722944878010e+01  5.7449228400846195e+01  5.6711710070811165e+01  5.6388494301897836e+01  5.4881945155201976e+01  5.3512264538440505e+01  5.2270622496790700e+01  5.1882980020765288e+01  5.0706334755561357e+01  4.9236425997540415e+01  4.9347844743060008e+01  4.8801157680171059e+01  4.7971589302037003e+01  4.6057365491005328e+01  4.3839151779460167e+01  4.2427683509559536e+01  4.0814762954778615e+01  3.9474943325285764e+01  3.8194337870735069e+01  3.7461915493023213e+01  3.7002093835188298e+01  3.5977090315721533e+01  3.5367133593960503e+01  3.5297541472554443e+01  3.5187073740928668e+01  3.4648435123917949e+01  3.4150025266644477e+01  3.3055417344431000e+01  3.2189239584662808e+01  3.2604968312574940e+01  3.1230113477908063e+01  3.1196936551571692e+01  3.3053663898437328e+01  3.3173620328383315e+01  3.3241248756099630e+01  3.2908824343791252e+01  3.2464282288963297e+01  3.2070944970290959e+01  3.2135066264263422e+01  3.2657402812722680e+01  3.3428310096669009e+01  3.4215402092698433e+01  3.4995819266373211e+01  3.6002377412902490e+01  3.6465398487291736e+01  3.7036935526907286e+01  3.8387003042587985e+01  4.0267616684975941e+01  4.1202755405403991e+01  4.0870855397591370e+01  4.0813746112251224e+01  5.2270542241507414e+01  6.0355747836102914e+01  8.5171199175731786e+01  8.7603105799457992e+01  8.8048391836964896e+01  8.5218022380737608e+01  8.7884285029776862e+01  4.9164518831691744e+01  8.5032498535351607e+01  8.6572519117152240e+01  7.3413193353983473e+01  7.2608171142088622e+01  6.0081098078241844e+01  5.9933470705479174e+01  8.6783316914200583e+01  5.2270692888602298e+01  5.2132158681284238e+01  8.4887758244464237e+01  8.5433298924854540e+01  4.9163671321330412e+01  8.4125944963924766e+01  8.6572584126560514e+01  8.5550084744113747e+01  8.4736927647933967e+01  8.6522683884783930e+01  8.4813348436237689e+01  8.6522078716901305e+01  4.9158464287155255e+01  6.6772126823536382e+01  7.5799419610197518e+01  5.1598587868895976e+01  3.6536143652706386e+01  5.2942564090359184e+01  7.5137636611031382e+01  6.1202749346643884e+01  6.4399230654312817e+01  4.2038401633100030e+01  4.3097651652597833e+01  7.5388689611630141e+01  4.6626431367743656e+01  8.2078113893139133e+01  6.7558170365666896e+01  5.4415952401708587e+01  5.6542447005295749e+01  6.8956095476057612e+01  3.3703741428886531e+01  7.8057257803255212e+01  6.1600326009166167e+01  7.0629684672034841e+01  5.2197620235575613e+01  3.6854389193801694e+01  4.6894719629682953e+01  4.5152718846190083e+01  5.7599318144511891e+01  4.2934236565530725e+01  8.1275259244323081e+01  3.6633435791442800e+01  7.5790082793008750e+01  6.4609973131093625e+01  7.0045934155550029e+01  5.0667513098522655e+01  7.2547363447875725e+01  6.0392789858689724e+01  6.7843549715876037e+01  6.4872865484069166e+01  5.5728578199813789e+01  3.8641622182170451e+01  5.9711950210862533e+01  7.9768890243423215e+01  7.4571005230758487e+01  8.5565558702787484e+01  7.1163242110775272e+01  6.9541137892878751e+01  5.6301427721616129e+01  3.9530102444863296e+01  4.1705108385193050e+01  5.9416401818936016e+01  7.9138914443913450e+01  6.1007929987019750e+01  3.5154494634826193e+01  3.9108928003537095e+01  8.1236716736696906e+01  4.5119389889106465e+01  3.2179756454112464e+01  6.7777123691731177e+01  7.5909093905491758e+01  6.5319483062835957e+01  4.9387793516398084e+01  8.5243267230960839e+01  3.8498837590369057e+01  5.0916348612111733e+01  5.9989463368480607e+01  6.5340199681016045e+01  5.6425618919214841e+01  4.7080737121125274e+01  4.3756406112278107e+01  5.6283982471865158e+01  4.7985940989727631e+01  4.7863530403580221e+01  4.4623350347993458e+01  4.9330134277241889e+01  8.4616446737485347e+01  7.8572426422175283e+01  5.2992826606955276e+01  8.3199049737494533e+01  7.5838104652400915e+01  7.3725426962809294e+01  8.0591778581924174e+01  6.2632077797209384e+01  5.9129288693695699e+01  6.6315771242988916e+01  7.2372377185778717e+01  5.7954617550452468e+01  7.8274680475479215e+01  5.0634256942244214e+01  6.5585070715444147e+01  3.2578652511288055e+01  4.9413887686845861e+01  6.8982632425936615e+01  7.7528832104218012e+01  6.3748451135506478e+01  7.0987344426291344e+01  6.2235111708493889e+01  7.1672999162799229e+01  3.5730427087133997e+01  5.3400888891052134e+01  5.3366834818522619e+01  7.9835524748931036e+01  6.7320899548408818e+01  3.7493184435100893e+01  7.9397183810019442e+01  6.3581049253271871e+01  8.4358201996198801e+01  3.3410259867900599e+01  8.4854444774931480e+01  8.4783012261986300e+01  5.5320325482549535e+01  5.0994488091517141e+01  8.4853707125956419e+01  8.5852404337664836e+01  8.3008729439391004e+01  8.5193614396631986e+01  7.1524180637583726e+01  3.6119689752374278e+01  8.0853001688005051e+01  7.5900941399350799e+01  5.6182312427666226e+01  5.0570242816217309e+01  4.7307025826709662e+01  8.5582193899004253e+01  8.4776753003504638e+01  5.8464865001115434e+01  8.5926856298947243e+01  8.3782981947942815e+01  8.4286327932638130e+01  8.6005834824295519e+01  5.9817985689611788e+01  4.9047220295774132e+01  7.1208147340113655e+01  3.4176764366788149e+01  4.9103757854743179e+01  3.6629091288580646e+01  6.9215803763603319e+01  8.7370616467077127e+01  6.6732608635130347e+01  7.2812662338500644e+01  8.3488827377619231e+01  6.0128095885876839e+01  3.1025840737367922e+01  7.2065254116601608e+01  3.9512259727460133e+01  5.2358551356949711e+01  8.4955574567053830e+01  8.2974216882126186e+01  6.2064049981779505e+01  8.7375536778098635e+01  4.3946926517423194e+01  8.5498788000742707e+01  6.3937697464230794e+01  3.2536893050105327e+01  3.6283056022378290e+01  3.7392247593573494e+01  7.2575619674070040e+01  8.1895525178886004e+01  8.1204555711850659e+01  6.8720380847177267e+01  8.5311496320839851e+01  6.0054094766974501e+01  4.9020792929034094e+01  4.9010714592881435e+01  3.2434003460674099e+01  8.4851279008879061e+01  8.5031989694866283e+01  8.5103805539796767e+01  7.5631687863365272e+01  8.1630369851393525e+01  8.5177454810258780e+01  8.3612061439407654e+01  6.6962078464636875e+01  8.7996227134671827e+01  8.7942133986705201e+01  6.1178620268733901e+01  3.5079292795632391e+01  6.1000054152004033e+01  8.2122868599601233e+01  5.6006379666221136e+01  6.4673844159636133e+01  8.7574446616282160e+01  6.1862209579145535e+01  7.3446744801407306e+01  4.0913719992125259e+01  5.6442989898821317e+01  5.5665993688848857e+01  5.7059192449394153e+01  8.5960273067585192e+01  5.0406435797804491e+01  5.1295781773475980e+01  4.9431818668585677e+01  5.1165372941273716e+01  4.7436360755692263e+01  3.2875637932746749e+01  3.1336682983538662e+01  5.2318893426913718e+01  5.5032170761269690e+01  7.5544797001735645e+01  7.5463124953841529e+01  8.7794353766867189e+01  6.6990968635512203e+01  6.4865825507422031e+01  6.0764150670885932e+01  6.0297422316524063e+01  6.0418506988403699e+01  6.0635323852715203e+01  6.0312972519136551e+01  6.0357502558539565e+01  6.2310491095534516e+01  6.0504315317870372e+01  6.1163582715656212e+01  6.4115486014026942e+01  6.2495223846350456e+01  5.8666807984836787e+01  6.0182724317350015e+01  4.4848310229433686e+01  4.6573075038727794e+01  4.4740268583966852e+01  4.3135729398190129e+01  4.3699924271954529e+01  4.1669085496909808e+01  4.2988083651865438e+01  4.2284771523071271e+01  3.8946395931839341e+01  3.7764926302227259e+01  3.4075627869306217e+01  3.4591871194464431e+01  3.4529112478086716e+01  3.5494090724464563e+01  3.4950507646308523e+01  3.6243100733236162e+01  3.6270932706766750e+01  3.5472958261871860e+01  3.6749889058742767e+01  3.6459896136205572e+01  3.7242669174536154e+01  3.6692782970079769e+01  3.7957061919913208e+01  4.0336547825596881e+01  3.8900209323918602e+01  4.7027075524814990e+01  4.6494498023511369e+01  4.6859522904433753e+01  5.0094919616441935e+01  6.7884017933360369e+01  6.7184791457846856e+01  6.6253339563107886e+01  6.7719427975877906e+01  7.3857187218677353e+01  7.7241282584658080e+01  7.4872816224101882e+01  7.6900938722541269e+01  5.4169217151288230e+01  4.9942792717122373e+01  5.0276828685792907e+01  5.2295850146075686e+01  3.6947840883613011e+01  3.8664931261618136e+01  3.6727332543762500e+01  3.7535875524000446e+01  3.7024226299622079e+01  3.6291293940119154e+01  5.4707077479374973e+01  5.6338257172300672e+01  5.0893391971005720e+01  5.4122440820920509e+01  5.0984070718805206e+01  7.5527964561630199e+01  7.2737936413569443e+01  6.0411295473747572e+01  6.0351527284346830e+01  6.2665213450856307e+01  5.9705165110377870e+01  6.2482427461685937e+01  6.1280948121566205e+01  6.3265548293241366e+01  6.6246609902850679e+01  6.5116268006780388e+01  3.8590680153503328e+01  4.0098258977010488e+01  4.1845068518245490e+01  4.0694406889734047e+01  4.3541334812024381e+01  4.2965219718476447e+01  4.7287364714871721e+01  4.0150428252449004e+01  4.0631270778646609e+01  4.5229142367849576e+01  4.5593865407646476e+01  7.2794314678615265e+01  7.7363687648184040e+01  7.4111160892063012e+01  7.8176211051739301e+01  8.1038261532978922e+01  7.0380437662410316e+01  6.5531645515963248e+01  6.9184602449475051e+01  6.7241266534180667e+01  5.1601704612052345e+01  5.5278505486325585e+01  5.6165909704994299e+01  5.1874872257404142e+01  7.1971304018015587e+01  6.9315059355836908e+01  6.9389212873706256e+01  6.6968674930530284e+01  3.5065354878816855e+01  3.4214432065232067e+01  6.1449163000423233e+01  6.0332174740102573e+01  5.9164131235943081e+01  7.1293553224079830e+01  6.9040617450822509e+01  7.2480813109712244e+01  6.9202026107540277e+01  5.4228014012408472e+01  5.0295481160630892e+01  5.0666150202674665e+01  5.2420213847836877e+01  5.0852475609042841e+01  5.2566933224758863e+01  3.7592193283840032e+01  3.6444911040089075e+01  3.7581823481305292e+01  3.6484546053897908e+01  3.7008100886526421e+01  3.6866650837736010e+01  4.5980882768836260e+01  4.7673049577863139e+01  4.7836518815125729e+01  4.7697625895726446e+01  4.0999909461283984e+01  4.6393046788440060e+01  4.6437192384433715e+01  4.7538966612233800e+01  4.1794359100158609e+01  4.4430685259246566e+01  5.7169096503090657e+01  5.8967704599586568e+01  5.6752310959805676e+01  5.5910735520737838e+01  4.0837100142970449e+01  4.4370280088088059e+01  4.0167886390629725e+01  4.5029217373751223e+01  3.7672574228278748e+01  3.4812664868085420e+01  3.7553160600917614e+01  3.6176000112646449e+01  3.6373384769844499e+01  3.5518609884278234e+01  3.7065147814714081e+01  6.3798788632511773e+01  6.3330034378442271e+01  6.5820644149412587e+01  6.5964291669338294e+01  7.0520731282328072e+01  4.8933413813918200e+01  4.9386030816878836e+01  7.0724580730656555e+01  6.2746144294750472e+01  5.9377661750352452e+01  5.8683581064345397e+01  6.2026388376281247e+01  6.9135382523896496e+01  6.7144919652540722e+01  6.3662398446456507e+01  6.3412465379071612e+01  5.7493133783739303e+01  5.2652247996065647e+01  3.8869703283989949e+01  3.8807059144805116e+01  3.7939073263642925e+01  5.9197987212191507e+01  6.0865737749210176e+01  7.6351024508232086e+01  7.8887312325252779e+01  7.2818164299340282e+01  7.6629001896654074e+01  7.3218264018998582e+01  7.3233444485331802e+01  6.7951715177028149e+01  6.7432000306374761e+01  5.5248268725250561e+01  3.8437020935409976e+01  5.7531706282126237e+01  5.8981377426831990e+01  3.5298843748359197e+01  3.6124227806573160e+01  3.5177701727704594e+01  4.2458722331578208e+01  4.4921994123724666e+01  5.2524442555320434e+01  4.8854403626600003e+01  4.9493369277983341e+01  5.0528481063772631e+01  5.9693465013621648e+01  5.9980266464555861e+01  6.0572280095578520e+01  6.0696314470461509e+01  6.4630846431029269e+01  6.4261238962275641e+01  5.4807630634673508e+01  5.0192881353440967e+01  4.8614743026813670e+01  5.0783237818905263e+01  4.8677031723502587e+01  4.5795859514234024e+01  4.7007386964427731e+01  5.5534016288970022e+01  5.2183063193314631e+01  7.5890778831275966e+01  5.4202894945403855e+01  5.1128886597090293e+01  6.2519363570461813e+01  6.5215433175129661e+01  6.9051247133459682e+01  6.7093703394925726e+01  3.7051130096697101e+01  3.4166490303944229e+01  3.6850402917446218e+01  5.9955129534201177e+01  3.5969843488242311e+01  6.0722492446831609e+01  4.1756977063370719e+01  3.8227940370644127e+01  6.1461598755849217e+01  4.8400875414091473e+01  6.7795629117484438e+01  3.6733491132992661e+01  3.7203875643349555e+01  3.6489580842921903e+01  3.6682826148269598e+01  3.6412747372005370e+01  6.1851068873399925e+01  4.3233967934520201e+01  4.5243742412340197e+01  4.4311259164953185e+01  7.5593647766405923e+01  5.8162823235252148e+01  5.2992642369384363e+01  5.3010995147568863e+01  5.4005932924200941e+01  3.4940792494157385e+01  6.9026926457668992e+01  6.9632205781201904e+01  3.7366103787277446e+01  3.7055526570652198e+01  4.6676362482964407e+01  4.7047287570263038e+01  4.2957530575274376e+01  5.6683561048020962e+01  6.0112331886364323e+01  6.1465602608207170e+01  5.9239678433483590e+01  6.2247014924469568e+01  3.9557991867675980e+01  3.8112107138364102e+01  3.8652052769234167e+01  3.8298255771095981e+01  6.9485468980725898e+01  3.8288545364551716e+01  3.9909868708221282e+01  4.0752374116899162e+01  5.0027316341860313e+01  5.0393542360008929e+01  5.0778270516520102e+01  4.8910705488493555e+01  3.9538205595948313e+01  3.7843855578190137e+01  3.8748834714737761e+01  4.9127381455291442e+01  7.3120560828831316e+01  7.3767302433273315e+01  7.4811580554819713e+01  6.2323389122417602e+01  6.6898040363996444e+01  5.2301598693873409e+01  4.9806065868765309e+01  4.8994203799180262e+01  5.0300830128950089e+01  6.4369146451232254e+01  6.1581792803214370e+01  6.2278971424500398e+01  3.6345799814816637e+01  3.6094050766434655e+01  3.5914865735938584e+01  5.2759283269690478e+01  5.4673480817868544e+01  5.4257678391492270e+01  5.2097433801895889e+01  6.6245367438180423e+01  3.6106778618281993e+01  3.6403593180715987e+01  3.6321791469864166e+01  6.0531779380060087e+01  6.0283931653972374e+01  6.0351433976144115e+01  4.2935539168265734e+01  4.4162069380195270e+01  4.4829819997324286e+01  3.7478428857729206e+01  3.5277083647906593e+01  3.5624152183565720e+01  6.1425885204435438e+01  6.2853806257003740e+01  6.2041067630902319e+01  6.1222239663484707e+01  6.1243062764860994e+01  6.1620207606287650e+01  6.0906426695904337e+01  4.5172929704017612e+01  3.5714273839263619e+01  4.7356052294867091e+01  6.8433717554738990e+01  5.1223223376747065e+01  5.0673322269242526e+01  3.6552572423278093e+01  3.7596746926148235e+01  3.7690986350476088e+01  3.8917459802340666e+01  3.8236641579074053e+01  3.7214268962279647e+01  5.0776105137915444e+01  4.9706659402887908e+01  4.9853423249881288e+01  6.1271238364731595e+01  6.1873893775055684e+01  3.7885558388354731e+01  3.8689602355526880e+01  4.1499674058893959e+01  4.2017954613752835e+01  4.6489885686178418e+01  4.0311027099943260e+01  4.0373168983362447e+01  3.9560907641242608e+01  4.7646525167932637e+01  7.5070011585478468e+01  5.1983791974899255e+01  5.3902599963397925e+01  5.2992073398771652e+01  6.7819632260713718e+01  6.8466099134887045e+01  6.7172743385672703e+01  5.1484824539164372e+01  5.3546704884301946e+01  5.1679351509974317e+01  4.5092058024470298e+01  5.5578450264297807e+01  5.5223810569628860e+01  3.8243806618462351e+01  3.7773084150339500e+01  6.4747972499937902e+01  6.4428417326935488e+01  6.5454096388542069e+01  3.8310058004303542e+01  3.6062364985399945e+01  </DataArray> 
</PointData> 
</Piece>
</UnstructuredGrid>
</VTKFile>