<?xml version="1.0"?>
<VTKFile type="UnstructuredGrid"  version="0.1"  >
<UnstructuredGrid>
<Piece  NumberOfPoints="784" NumberOfCells="1320">
<Points>
<DataArray  type="Float64"  NumberOfComponents="3"  format="ascii">266913.131276 586512.314988 0  266738.13716 587762.325998 0  266363.132677 589012.328643 0  266175.641078 590169.601714 0  265666.575631 591040.7699119999 0  264875.64001 591687.766419 0  264900.636161 591845.049083 0  266088.14152 592012.3229499999 0  265561.959259 592661.17101 0  264288.136855 593037.368683 0  263865.194033 593999.8486949999 0  263850.641856 593236.729596 0  263625.634872 592756.525286 0  262689.574249 593299.848918 0  262475.636737 594003.0907310001 0  261934.554452 594340.929792 0  261725.631329 594932.094409 0  261729.256443 595728.498809 0  262138.136044 595012.330523 0  262288.141035 596262.333669 0  261488.994028 597511.480605 0  261234.15567 598316.338928 0  260815.635063 599014.863821 0  261400.643658 599389.7367680001 0  261322.963374 600022.185065 0  261119.455248 600931.061306 0  261607.436504 601293.0629359999 0  260807.446929 602089.899812 0  260025.642878 602988.868697 0  259613.135827 603937.3854499999 0  259050.643123 604100.987861 0  258411.880065 603988.6335979999 0  257764.357469 604449.872569 0  257971.239668 605320.429125 0  258041.396867 605740.635381 0  257188.143339 606987.394312 0  256038.141198 608112.3554550001 0  254788.141633 609087.4026939999 0  253588.140656 609812.362881 0  252338.135706 609737.4048949999 0  251088.138116 609787.404055 0  249963.12851 610287.399466 0  248613.130524 610462.365857 0  247363.132198 610687.407659 0  246113.130532 610837.411551 0  245832.347438 610918.209918 0  245016.946433 610958.5639439999 0  244313.129646 610762.372259 0  244400.622144 611378.093316 0  243939.669208 612460.8930899999 0  242960.649733 611984.892792 0  242170.381438 611919.647351 0  241888.122919 611112.375656 0  241393.380757 610467.6456149999 0  240594.157528 611306.369822 0  240525.621947 610804.648112 0  240363.123632 610512.3745050001 0  239113.123247 610262.374278 0  239813.12126 609037.412459 0  240588.122952 607812.368199 0  241013.119545 606625.9534560001 0  241454.373249 605724.888025 0  242238.120107 604687.3993 0  243088.121248 603462.362766 0  242860.319451 603007.3932640001 0  241563.116617 603812.361344 0  241778.400913 604327.642217 0  242059.837234 604824.879102 0  241475.620201 604923.2402390001 0  241462.182234 605449.881372 0  240906.219606 605674.888222 0  240241.856192 606891.125066 0  239891.734044 607841.012479 0  239048.653431 608724.889805 0  238118.054545 608974.895967 0  238888.111029 607337.406468 0  239738.119992 606212.362729 0  240288.12044 605687.4075229999 0  240380.212307 604729.521696 0  239347.309632 604603.204501 0  238888.112036 604387.408787 0  237913.11173 604687.401386 0  236784.172023 604499.882783 0  236883.408793 603717.08334 0  236154.933927 603595.565605 0  235688.103943 602912.369264 0  235763.108033 601662.366516 0  236363.110805 600412.35884 0  236738.107995 599162.356577 0  236525.607944 598482.2412899999 0  236138.109208 599362.357613 0  235725.063048 600325.4466510001 0  235091.948926 601408.5220979999 0  235188.10921 600312.366344 0  234375.602405 600833.9674270001 0  234663.109308 599912.358011 0  234138.105122 600062.365644 0  233955.307245 599029.561063 0  233338.103791 598387.401556 0  233988.09795 597862.356384 0  235138.101489 596637.3947750001 0  235563.1039 595387.392428 0  236513.103639 594212.356312 0  237163.10684 592987.3929869999 0  238313.103031 591862.3515540001 0  239513.107028 590812.3512640001 0  240638.102135 589787.387271 0  241463.109549 588587.378486 0  242294.489816 587443.735215 0  242913.101099 586512.341804 0  243544.066915 585474.859604 0  243040.448415 585184.975583 0  242438.10214 585337.38015 0  241313.102353 586562.339499 0  240538.107104 587787.382449 0  240114.641085 588588.939407 0  239388.100256 589437.382238 0  238188.104456 590512.346358 0  236938.100507 591362.349798 0  235813.10453 592537.396388 0  234864.502938 593178.7753880001 0  234463.097651 592862.357267 0  235113.0965 591662.3545979999 0  235713.101522 590412.346099 0  235777.688431 589976.7582779999 0  234943.583145 590706.265132 0  234462.482256 591490.2841159999 0  233801.497784 592112.940187 0  233388.099101 591787.394208 0  234013.093099 590437.393065 0  234776.217248 587148.7548100001 0  235163.093726 586562.3486189999 0  235313.098918 585483.229012 0  235250.59732 584662.298153 0  235588.093896 583337.379493 0  236329.432041 582199.858992 0  237188.096234 581462.3349939999 0  237463.088521 580212.335511 0  238350.592558 579057.652616 0  238591.415797 578574.847681 0  238313.094106 577612.328905 0  239229.696732 577695.769664 0  240195.161018 577513.008613 0  240614.996733 577149.8518770001 0  240663.091715 577412.332622 0  240288.092486 578662.334085 0  239942.357258 579508.095811 0  240438.100019 580212.3334220001 0  241338.095553 580387.375355 0  241238.099828 579137.369157 0  241788.097003 577887.370889 0  241983.554649 577241.9220939999 0  242054.178239 576927.8105029999 0  242588.100699 575737.366175 0  243149.324833 574898.583978 0  243695.278626 573919.517981 0  244268.494418 573724.8454239999 0  244995.134063 573930.2767810001 0  245417.314363 573391.601898 0  243450.599125 571859.479773 0  245776.797908 572599.8353060001 0  246779.639852 572973.285167 0  248034.741935 573186.082054 0  249413.10651 573162.3205520001 0  250496.922226 573271.1521899999 0  251613.105126 573237.3551319999 0  252421.824577 572846.032906 0  253256.245022 572580.4733130001 0  253739.471933 571960.9547369999 0  254174.511864 572149.8346569999 0  254484.944333 571684.194807 0  254384.108649 570891.346712 0  254344.002752 570218.26407 0  255025.609604 570829.0294979999 0  255715.005913 570489.264586 0  256218.846343 570774.828355 0  256834.349083 570508.5908 0  257390.092515 570014.308325 0  257624.431042 568493.478911 0  259355.811717 569380.021819 0  260033.372814 569617.066669 0  262679.741751 570320.699974 0  263289.115756 569524.817815 0  263463.114338 570512.301061 0  264638.198419 570687.3443539999 0  265058.220065 571334.378467 0  265447.561421 572077.90485 0  265488.125257 573137.3446020001 0  265131.937715 573963.293593 0  265432.389648 575093.068786 0  265638.122314 576338.029955 0  265750.630817 577371.8281319999 0  265738.570663 578561.9098850001 0  265875.630866 579139.630549 0  266213.129247 579862.311842 0  266563.130472 581112.314509 0  266238.135356 582362.310259 0  265938.12863 583612.320897 0  265738.131342 584762.3210189999 0  266875.638633 585365.358768 0  264018.7239399826 593650.4646671159 0  262236.3944351029 595831.1252656333 0  241846.246678 605206.1436625 0  240200.622106 608424.8903290001 0  240943.4862974102 610939.7757535663 0  236550.6094 599787.3577085 0  238528.1212051503 608102.9081793013 0  244413.4891967989 572609.5960859474 0  236382.0474488751 598808.3067022427 0  235369.601910944 600933.5380148316 0  235413.099011 591037.3503485 0  235446.2251831186 590266.6553871984 0  240475.5921005 578037.3333535 0  240413.173949154 577324.4280286073 0  240574.037899 606283.0066440001 0  263857.9179445 593618.2891454998 0  264153.4303974913 593343.916675058 0  242042.1833925 604946.7714812499 0  241650.3099635 605465.51584375 0  244613.6985165 572229.6575395 0  236631.8579695 598822.2989335 0  235140.029068 600860.444221 0  241767.7287175 604874.0596705 0  242140.15174975 604817.0853906251 0  234781.8558075 600573.1668855001 0  242091.167571125 604881.9284359375 0  234519.3558565 600373.162719 0  254604.8337712102 583989.0014118921 0  250699.5846056537 594617.3297041012 0  250540.4796469513 602258.2940568649 0  248483.7490186612 580334.7345534252 0  258549.2190328319 577893.951823392 0  257067.0067473103 590016.5327808241 0  243285.0921999099 596333.923437875 0  248333.1386145258 589098.0389905117 0  256142.8445072741 595883.3911551933 0  260245.1368072523 583315.2785712298 0  253472.3380211276 578932.2908163272 0  246432.3347504817 599884.5019511909 0  261555.9240922556 588041.186709004 0  247293.1100123104 605823.8307887657 0  246458.2798550911 593168.8646574575 0  252840.0183145193 588226.5564648228 0  249828.2874404451 584740.7888937403 0  255409.5660975206 600458.8956828594 0  260819.9733392385 574219.403683011 0  252584.2262054711 605722.6603825617 0  254049.8830611471 592547.4852571967 0  250015.4356193061 598425.2225922942 0  245872.072249477 577604.9761853142 0  262002.1583249522 579753.4663046852 0  257732.6630933878 586227.970805314 0  250242.5556457866 577017.3316409125 0  244921.6453001869 581816.6358421432 0  256520.3890639471 580904.824006648 0  240779.0970645865 599524.6679555867 0  257100.1829219198 574459.5922545703 0  239912.2630002034 595231.1172704464 0  244703.0875078634 590068.6945953515 0  242549.5490268674 592874.3693043783 0  251586.0465921376 581796.2215047925 0  246643.189997516 596527.447801719 0  251049.7658069622 591057.6752245198 0  253014.5731561695 596998.6601086652 0  238680.2197353724 584542.2309791476 0  259715.365803504 591937.1938619445 0  254097.157218761 575731.4494927844 0  246806.6408589328 586139.0877599345 0  246136.1179750556 602959.471719323 0  253520.7033332401 602835.180253843 0  244125.4295793909 607538.9817227355 0  252546.8895354472 599881.3279113505 0  258289.0983523553 600397.640191779 0  247518.7952199645 583037.3718217331 0  263140.3959879661 582529.2228421422 0  262894.8586894067 585442.3590432997 0  256968.6320599076 593040.7691844478 0  243573.0187527719 600218.2795730785 0  258888.5766127351 595139.7745218446 0  262588.7569809347 576734.8569237856 0  259318.4257992262 580601.2540325444 0  249963.3812725965 607065.7205847671 0  257494.5307999607 583482.5893534871 0  258906.4757205145 572278.8089438241 0  237751.446593475 587300.5805003279 0  255142.4708720699 604956.7580261135 0  258485.4978753244 597756.9250383095 0  255516.7820591553 587791.39641967 0  239758.4692108706 601926.8203218657 0  255873.0092222999 577739.5085867504
[...]
<PointData  Scalars="f_32-1"> 
<DataArray  type="Float64"  Name="f_32-1"  format="ascii">4.2055443318031031e+01  4.3318545318523228e+01  4.5326759999369877e+01  4.7054254839580501e+01  4.8382036324932749e+01  5.0475308260397824e+01  5.1098404463065471e+01  5.1548003375876419e+01  5.1565598137660437e+01  5.2097638218544134e+01  5.2416481375283333e+01  5.2309894348315765e+01  5.2655380377376275e+01  5.5352586796805994e+01  5.6756819629104470e+01  5.8117250286024586e+01  5.9654568621453578e+01  6.1079867141337814e+01  6.1040059513555704e+01  6.1439238272715194e+01  6.3585102554613727e+01  6.5329549766097557e+01  6.7270567634937962e+01  6.8280559596298247e+01  6.8801222980729463e+01  7.0053809807247092e+01  7.0416949276625431e+01  7.1094918798629337e+01  7.2375799309613384e+01  7.3159440111319881e+01  7.3358797922977914e+01  7.3864126413063332e+01  7.5078164279335127e+01  7.6029497133882145e+01  7.6205489620002922e+01  7.7118698280890357e+01  7.8352822107948455e+01  7.9639161530007499e+01  8.0556531139665964e+01  8.1366282505176713e+01  8.2573054235000697e+01  8.3698910852661243e+01  8.4723956561370173e+01  8.5627283158215405e+01  8.6436160990504447e+01  8.6607377031828705e+01  8.7045691375054531e+01  8.7601766884408562e+01  8.8028519437777689e+01  8.8222677889558071e+01  8.8260601778931800e+01  8.8297843995767025e+01  8.8286529953790833e+01  8.8370010696442137e+01  8.8564140456657498e+01  8.8549358547541104e+01  8.8552264601099751e+01  8.8630989761251811e+01  8.8420830658541107e+01  8.7730069270914484e+01  8.6920626753606967e+01  8.6244842255962325e+01  8.5152662982354059e+01  8.3386037067949331e+01  8.3217557834876274e+01  8.5456530915616554e+01  8.6046691970813967e+01  8.6184360663164938e+01  8.6335610712640914e+01  8.6553306490761187e+01  8.6837236381149381e+01  8.7869703666752628e+01  8.8243730873151591e+01  8.8445555457273613e+01  8.8489443797631566e+01  8.8268528389135980e+01  8.7707451656508837e+01  8.7119359307344098e+01  8.6470349467092063e+01  8.6772356806401902e+01  8.7054207870360244e+01  8.7475410285628342e+01  8.7609964951123715e+01  8.7595544375475356e+01  8.7635779951919901e+01  8.7600699495784994e+01  8.7301457907179312e+01  8.6380761086982119e+01  8.4912822944987468e+01  8.4718018634237055e+01  8.6162037585498197e+01  8.6796348705418183e+01  8.6994475212896191e+01  8.6838398474628235e+01  8.6918798516104957e+01  8.6756992330303831e+01  8.6734596097198477e+01  8.6517443013155315e+01  8.6417215797273087e+01  8.6134905068021453e+01  8.3904035682285866e+01  8.1550142821376568e+01  7.8590750032389380e+01  7.5783449524937438e+01  7.3095012675304631e+01  7.0731091945266840e+01  6.8768948937767590e+01  6.6977878555927788e+01  6.5097089959182412e+01  6.3490587289575387e+01  6.1536580126226141e+01  6.0488933865442519e+01  6.0723534674844814e+01  6.4108942860883559e+01  6.6767873261512818e+01  6.7815567700608341e+01  6.8860399016992289e+01  7.0607297013534364e+01  7.2798727973623457e+01  7.5113829321402790e+01  7.5738295804608285e+01  7.5744897215365427e+01  7.4798738861674494e+01  7.2836915324404771e+01  7.2434047655151261e+01  7.4226272126483479e+01  7.5423629508553290e+01  7.5828584659537967e+01  7.5831673352373230e+01  7.4559658864704275e+01  7.0184498854758829e+01  6.9448945648664207e+01  6.8335423544200808e+01  6.7720714850667250e+01  6.6799899067200357e+01  6.5701754731412791e+01  6.4356576543441690e+01  6.3046963270428321e+01  6.1929618181830101e+01  6.1472537338197185e+01  6.1193056480129165e+01  6.1128149759314837e+01  6.0903672213299892e+01  6.0834223114834280e+01  6.0842538272935037e+01  6.1188869454304509e+01  6.1760472650715890e+01  6.1861553683477929e+01  6.0683173240651342e+01  5.9143796814869035e+01  5.7875181579815333e+01  5.7111416459997713e+01  5.6787866918434567e+01  5.5291178046306804e+01  5.4012750295155122e+01  5.2858349422280817e+01  5.2498225462108977e+01  5.1390982063746435e+01  4.9887462167592091e+01  4.9753825755784696e+01  4.9430568119191150e+01  4.8671478965333648e+01  4.6637124333182499e+01  4.4159914451503489e+01  4.2784528239551044e+01  4.1257248476727248e+01  3.9844043992507927e+01  3.8659392567900149e+01  3.7831562688404944e+01  3.7543583880550472e+01  3.6577530375551021e+01  3.5982210473257851e+01  3.5923073960893483e+01  3.5823338903683485e+01  3.5342672864857668e+01  3.4869956516273788e+01  3.3848811341264266e+01  3.2917445158381383e+01  3.2747672505102649e+01  3.1923749834919292e+01  3.1831766467950018e+01  3.3529174493381596e+01  3.3740026129262041e+01  3.3667443879025434e+01  3.3439904681471646e+01  3.3168071448222783e+01  3.2908800506650152e+01  3.2927148402381661e+01  3.3380162453274060e+01  3.4115238272691734e+01  3.4923598597702160e+01  3.5662666903143865e+01  3.6659269000330774e+01  3.7208601091959238e+01  3.7824242671928580e+01  3.9061629654719624e+01  4.0618810361076356e+01  4.1763381596520631e+01  4.1817653569104991e+01  4.1547285890810656e+01  5.2386603735418696e+01  6.1224059451636499e+01  8.5754318488366096e+01  8.8141860348638019e+01  8.8539895634525777e+01  8.5675139069527177e+01  8.8427720393488158e+01  4.9655794924227102e+01  8.5443307283033263e+01  8.6955660076920680e+01  7.3858152783109986e+01  7.3111338111481203e+01  6.0955300040602268e+01  6.0848558943595400e+01  8.7430083171760145e+01  5.2386469115665300e+01  5.2311645086295428e+01  8.5467436466574256e+01  8.6017818006136849e+01  4.9655764048871596e+01  8.4597299830570563e+01  8.6955748717737919e+01  8.6209800021945540e+01  8.5314467226834154e+01  8.6888258133860901e+01  8.5391942204484053e+01  8.6887462701682097e+01  4.8388517325927744e+01  6.6727890237964175e+01  7.6140197435242541e+01  5.0367830966018573e+01  3.1665143012438659e+01  5.0546541418570868e+01  7.5705634269859402e+01  6.0741555486909860e+01  6.4738299871725786e+01  4.2408116829185246e+01  3.9913822188901086e+01  7.5548999468077156e+01  4.7276303173870765e+01  8.2689702774322328e+01  6.7771541837434768e+01  5.2136776432096795e+01  5.7071106089203091e+01  6.8380523511028628e+01  3.4159931080740655e+01  7.8727367639374776e+01  6.1770137185743714e+01  7.0394686837032680e+01  5.2044398146145930e+01  3.4754711812209358e+01  4.4234285838323785e+01  4.4159093280796874e+01  5.7420011939305752e+01  4.3152874873777670e+01  8.1922799965189981e+01  3.6965576409334489e+01  7.6549476078713866e+01  6.3966546639019178e+01  7.0689026570503856e+01  5.1287712401179547e+01  7.2874986720470261e+01  6.0297404198039651e+01  6.7423563618057699e+01  6.5282501871710920e+01  5.6159853487009620e+01  3.6690859242024857e+01  5.9775884861485693e+01  8.0186629503545461e+01  7.4991258176527026e+01  8.6159976095000758e+01  7.0838488913851876e+01  6.9839291976653143e+01  5.6533904710968997e+01  3.9407447236669512e+01  4.2574673512737910e+01  5.9355353997388875e+01  7.9782941677243315e+01  6.1748324344226646e+01  3.5324942805330089e+01  3.8796300178246128e+01  8.1837155884588157e+01  4.4770045848928021e+01  3.3172004595598381e+01  6.8468234951378250e+01  7.6542024843778805e+01  6.5822245432541067e+01  4.4126512685937676e+01  8.5586744578512693e+01  3.5228112332072783e+01  5.1553181771328944e+01  5.9990234076007198e+01  6.5463350420636260e+01  5.6678453763732108e+01  4.7431861512853260e+01  4.4439876276936715e+01  5.4705763177484911e+01  4.7583695531337405e+01  4.7853639256029730e+01  4.5234432950473519e+01  4.8615500791128383e+01  8.5183224657058616e+01  7.9197474151384938e+01  5.3316163154992850e+01  8.3777983814855219e+01  7.6371971433162997e+01  7.3662603504120312e+01  8.1251569566979484e+01  6.3093926872113450e+01  5.9533950406783354e+01  6.5444691114846478e+01  7.2702987926524898e+01  5.7927843089877939e+01  7.8681738726659205e+01  4.7539743305972237e+01  6.5858837262293278e+01  3.3253958412010441e+01  4.8098356000948101e+01  6.9186474958587141e+01  7.8266595647224079e+01  6.2885233642552016e+01  7.1506557829269497e+01  6.1853253130995327e+01  7.2555454072169368e+01  3.3624532726228509e+01  5.1619933684317793e+01  5.3906539445975099e+01  8.0413710440115253e+01  6.7482376304436826e+01  3.7483951442889250e+01  7.9979888730027596e+01  6.3854178108283755e+01  8.4754032445045283e+01  3.4065032135774707e+01  8.5443958328503726e+01  8.5364952187740386e+01  5.5682209328208721e+01  5.1450451810941509e+01  8.5433924837045709e+01  8.6395838215442311e+01  8.3543688726126234e+01  8.5559983627143197e+01  7.2082887490914771e+01  3.6630144626785558e+01  8.1354672010281689e+01  7.6537455740521636e+01  5.6584728517369072e+01  5.1034422876729593e+01  4.8019432975941214e+01  8.6170647866498584e+01  8.5355114094513510e+01  5.9194122647434689e+01  8.6395191304381626e+01  8.4347808853470127e+01  8.4857925427679305e+01  8.6524469674516652e+01  5.9938845621537070e+01  4.9564237761011853e+01  7.1933304357693501e+01  3.4767764245292717e+01  4.9714506825965159e+01  3.7035376329621712e+01  6.9906111779990496e+01  8.7932082821979805e+01  6.7278001790523049e+01  7.3260216130049656e+01  8.3986185422621475e+01  5.9897316279745944e+01  3.1865172873882411e+01  7.2609544075349817e+01  3.9102943764662243e+01  5.2944844125075029e+01  8.5353503216453760e+01  8.3409475941172929e+01  6.2695822432634245e+01  8.7932042677913941e+01  4.3530499374907222e+01  8.5892865916269983e+01  6.4633079043969687e+01  3.3170078670874432e+01  3.6770658797907423e+01  3.7429584844218134e+01  7.2961715616240355e+01  8.2451035744959185e+01  8.1820452632585770e+01  6.9263632932628340e+01  8.5896653952795802e+01  6.0824613469678930e+01  4.9591207077429665e+01  4.9579513622284090e+01  3.3188686271993717e+01  8.5430446791496038e+01  8.5613646784576318e+01  8.5686677053398896e+01  7.6267677584376216e+01  8.2194182329215238e+01  8.5693105647168835e+01  8.4134612164420162e+01  6.7587394953291579e+01  8.8495230836757926e+01  8.8448189453895282e+01  6.1654075084951401e+01  3.5652503572966218e+01  6.1700168324571052e+01  8.2662962147594641e+01  5.6680057786501784e+01  6.5197162392931034e+01  8.8102291171158456e+01  6.1866356758278876e+01  7.3944779716671434e+01  4.1622792670989199e+01  5.6847951488252072e+01  5.6060375179403557e+01  5.7473888340313131e+01  8.6328178632134012e+01  5.0879860364901553e+01  5.1680615220862883e+01  4.9987494045025564e+01  5.1558993574790598e+01  4.7993367250788516e+01  3.3353070168626218e+01  3.2125537332671271e+01  5.2893649165706400e+01  5.5437610517812658e+01  7.5542772360461086e+01  7.5480466646547512e+01  8.8319086479848906e+01  6.7464243160079207e+01  6.4993061921587937e+01  6.0923649190005563e+01  6.0539815509443883e+01  6.0529865279510908e+01  6.0430885687245471e+01  6.0340722567165479e+01  6.0146503270951506e+01  6.2219096813235524e+01  6.0254696479777820e+01  6.0950551620215435e+01  6.4340029724702745e+01  6.2459714646427344e+01  5.9021425353354680e+01  6.0559721395005347e+01  4.5242698918813673e+01  4.6902114249131131e+01  4.4872586980367437e+01  4.3440020589161691e+01  4.3757666464093397e+01  4.2032238277098898e+01  4.2990030615141869e+01  4.2319065272442622e+01  3.9174275862131466e+01  3.8001752414734391e+01  3.4769531298787832e+01  3.5289681001371072e+01  3.5207393261507683e+01  3.6098534861719813e+01  3.5582727116370755e+01  3.6947899284760759e+01  3.6880053847167815e+01  3.6058732382632108e+01  3.7560622571171876e+01  3.7109589826542354e+01  3.7901611487458005e+01  3.7414451813869903e+01  3.8518088838686047e+01  4.0539042351018757e+01  3.9230378959094573e+01  4.3138411994162183e+01  4.6673059611314898e+01  4.5554681760695310e+01  4.8214317113106560e+01  6.7762208052639238e+01  6.7044375150645152e+01  6.6355170974147526e+01  6.7721941139781023e+01  7.3992809603111368e+01  7.7759903755045698e+01  7.4967187180077872e+01  7.7257717872745957e+01  5.3427011280489879e+01  4.9544345077821809e+01  4.8748026911219441e+01  4.9953064584844149e+01  3.3391081318099296e+01  3.6110809980917502e+01  3.4613489557685625e+01  3.4551393921489094e+01  3.2351055156023143e+01  3.2589768881665400e+01  5.4222843581235118e+01  5.5145228078219610e+01  4.7115518762927195e+01  5.1655752577761163e+01  4.9258752409553281e+01  7.6158647622645987e+01  7.3248568130619859e+01  6.0123401516512509e+01  5.9982584147532670e+01  6.2398355913142481e+01  5.9634316301020625e+01  6.1666577257435208e+01  6.0420749794428652e+01  6.3632395150941925e+01  6.6125097192841935e+01  6.5420228901665737e+01  3.7034828041317688e+01  4.0059529381754380e+01  4.2582981174180219e+01  4.0681455757051353e+01  4.0776837355823837e+01  4.2492383694006158e+01  4.6852530614727698e+01  3.5253034359941914e+01  3.7537858487569657e+01  4.4482521066389467e+01  4.3832905403910502e+01  7.2589773039873222e+01  7.7636671594455024e+01  7.4140505004687640e+01  7.8536309019994889e+01  8.1576575653215528e+01  7.0824872880824046e+01  6.5252429297006799e+01  6.9620742519661150e+01  6.7382912286522412e+01  4.7625876568851680e+01  5.3124233260433016e+01  5.5239256323369005e+01  4.8670980036242682e+01  7.1932078318722318e+01  6.8665763250236594e+01  6.9249972598395402e+01  6.6021580448498227e+01  3.5296247075086711e+01  3.4398341753904887e+01  6.1566074813139693e+01  6.0094153857579975e+01  5.8680442556217479e+01  7.1233060659266556e+01  6.8743059156673851e+01  7.2207593259060843e+01  6.9168274395609401e+01  5.4172301300811498e+01  5.0271518261156430e+01  4.9913988525599521e+01  5.1569362221678219e+01  5.1171083382953860e+01  5.2977318298808811e+01  3.5924639178248732e+01  3.5714271907704763e+01  3.5465335502853478e+01  3.3810474896788016e+01  3.5863524312462886e+01  3.6250217879743026e+01  4.4226886037856509e+01  4.2396388380255651e+01  4.6017968319061012e+01  4.2271570511716618e+01  3.8005652870880930e+01  4.5412604160761084e+01  4.5891836758518238e+01  4.6624187050086327e+01  4.0239536047832615e+01  4.3697881529393882e+01  5.6867316664857924e+01  5.9167190091191692e+01  5.6717513419948936e+01  5.4961342792943654e+01  4.0975880256688910e+01  4.4646607466211087e+01  3.8311716598996540e+01  4.5368172670879332e+01  3.7213390324699688e+01  3.5470112061534188e+01  3.5891936634446502e+01  3.4850964311240553e+01  3.6838518863154263e+01  3.6100472990369710e+01  3.7262302568576459e+01  6.2820052194215044e+01  6.2741765941918793e+01  6.5547110888143379e+01  6.5973136242077274e+01  7.1052934918198389e+01  4.9386560339322870e+01  4.9632009592734725e+01  7.1016892962589779e+01  6.2841073815648144e+01  5.8975876529106664e+01  5.8172416780139372e+01  6.2155918846708083e+01  6.8524869206086521e+01  6.6472950236789003e+01  6.4039846656803050e+01  6.3633662029113054e+01  5.7592810777867378e+01  5.2714859771387474e+01  3.6232091826455971e+01  3.7545833620415010e+01  3.7372040793576517e+01  5.9430906236583127e+01  6.0551848854766831e+01  7.6576122348379940e+01  7.9273883340959117e+01  7.2878580926297516e+01  7.7234955909749814e+01  7.3511387514256668e+01  7.3140271109351218e+01  6.7037357641139778e+01  6.7057261531646432e+01  5.3814326586183363e+01  3.7975451195500213e+01  5.6420642461263171e+01  5.9488407726380181e+01  3.4216622870031856e+01  3.6324669173652822e+01  3.5642812841653338e+01  4.2880652745835590e+01  4.4984491079219225e+01  4.9156173354327429e+01  4.5026882243359111e+01  4.4457443854044328e+01  5.1000355099134289e+01  5.9654507291682172e+01  5.9836375843992634e+01  6.0791924151616804e+01  6.0620186401104576e+01  6.4409156706929409e+01  6.4433921000015900e+01  5.4368193449569233e+01  5.0764624087325522e+01  4.7637270262749688e+01  5.1061089926815399e+01  4.8115916982098796e+01  4.5531582918226576e+01  4.7043592550129269e+01  5.5483685093694447e+01  5.1394351518386777e+01  7.6081710086172436e+01  5.2948087641936766e+01  4.9554343908148830e+01  6.1377771852888081e+01  6.4784733944367446e+01  6.9497792628236937e+01  6.7312422039025165e+01  3.7289942885183770e+01  3.4814500236185161e+01  3.7130746273613553e+01  5.9867008607218054e+01  3.6360571978801872e+01  6.0526617611144054e+01  4.1249899739885997e+01  3.7992713026681386e+01  6.1645520227689531e+01  4.5199135027937835e+01  6.7698572331621705e+01  3.2243193650103287e+01  3.2445357122492105e+01  3.2796817802183433e+01  3.1716363157570804e+01  3.3323179398790380e+01  6.0924567207155732e+01  3.9568226694617209e+01  4.3628421685628943e+01  4.1669305658791309e+01  7.5764837689397098e+01  5.7361440121982078e+01  4.9881988863044427e+01  5.0203774875235496e+01  5.2062880761737034e+01  3.4604433891902033e+01  6.8903397162791450e+01  6.9509648577138606e+01  3.4813243681647158e+01  3.4866364004091452e+01  4.2824219533784003e+01  4.2395521092966881e+01  4.1076627438730739e+01  5.5910207976021148e+01  5.9919817925374453e+01  6.1508524266725132e+01  5.8847732053818774e+01  6.2358373113343546e+01  3.6456523579938164e+01  3.7099908125096462e+01  3.7025017391560610e+01  3.7146258587151777e+01  6.8836844522590610e+01  3.7168457988622713e+01  4.0003434806233727e+01  4.1076668492065849e+01  4.5441844269041546e+01  4.5665872236415595e+01  4.6398706460154543e+01  4.3980448714915980e+01  3.6307470620610161e+01  3.5364507747307066e+01  3.5969448162106971e+01  4.6987106215207824e+01  7.2956845230506417e+01  7.3746596605180486e+01  7.4926254501950226e+01  6.2564353568965394e+01  6.5896711695356444e+01  5.0153203801443247e+01  4.8284900581005147e+01  4.7709882549010061e+01  4.8862194957271768e+01  6.3637733101208411e+01  6.0865475413545866e+01  6.1523991404005187e+01  3.2627135074609136e+01  3.3085886960895451e+01  3.4019171888321843e+01  5.1466646906235361e+01  5.3210627646777006e+01  5.2285390095306710e+01  5.0267260401569075e+01  6.6124114103650570e+01  3.6604544639832042e+01  3.6593450705374927e+01  3.6735326689642228e+01  6.0272394070295377e+01  6.0085670889765126e+01  6.0112065745190137e+01  4.2133186360753385e+01  4.3570227344751842e+01  4.4464469457120984e+01  3.7337814103214562e+01  3.5849106211724866e+01  3.6030543501562789e+01  6.1298869681153036e+01  6.2922058867191197e+01  6.1983329899305943e+01  6.1165791945277583e+01  6.1133887528540804e+01  6.1691917921878918e+01  6.0691486116364807e+01  4.5104698882897772e+01  3.6222795238341334e+01  4.2573967297861259e+01  6.8362646608341635e+01  4.9373739876141734e+01  4.9000627130699499e+01  3.2241021558646423e+01  3.2809356050766823e+01  3.5873897096748394e+01  3.8077813748013369e+01  3.3907307516700392e+01  3.4287239806999267e+01  4.7794732992290321e+01  4.5713478302875906e+01  4.7138433877676370e+01  6.1207617783710539e+01  6.0865840474787163e+01  3.5870745159554566e+01  3.7639639142838327e+01  3.6639367686699316e+01  3.8654068525748720e+01  4.5413726138821282e+01  3.5532432147854230e+01  3.8036463819105407e+01  3.6254832795794421e+01  4.7165665681574097e+01  7.5214705469892351e+01  4.8192527263544200e+01  5.1153348449256107e+01  5.0840577390729962e+01  6.6904360980333038e+01  6.7631526298339651e+01  6.6146025801729650e+01  5.0640527282633997e+01  5.2833728593481737e+01  5.0382167612078185e+01  4.4583141529238645e+01  5.4234641385686544e+01  5.4447358436706324e+01  3.6631825755714274e+01  3.7311002242051643e+01  6.4083514017481065e+01  6.3684660693728063e+01  6.5065397517922136e+01  3.7396020206636976e+01  3.6318603402436210e+01  </DataArray> 
</PointData> 
</Piece>
</UnstructuredGrid>
</VTKFile>