<?xml version="1.0"?>
<VTKFile type="UnstructuredGrid"  version="0.1"  >
<UnstructuredGrid>
<Piece  NumberOfPoints="784" NumberOfCells="1320">
<Points>
<DataArray  type="Float64"  NumberOfComponents="3"  format="ascii">266913.131276 586512.314988 0  266738.13716 587762.325998 0  266363.132677 589012.328643 0  266175.641078 590169.601714 0  265666.575631 591040.7699119999 0  264875.64001 591687.766419 0  264900.636161 591845.049083 0  266088.14152 592012.3229499999 0  265561.959259 592661.17101 0  264288.136855 593037.368683 0  263865.194033 593999.8486949999 0  263850.641856 593236.729596 0  263625.634872 592756.525286 0  262689.574249 593299.848918 0  262475.636737 594003.0907310001 0  261934.554452 594340.929792 0  261725.631329 594932.094409 0  261729.256443 595728.498809 0  262138.136044 595012.330523 0  262288.141035 596262.333669 0  261488.994028 597511.480605 0  261234.15567 598316.338928 0  260815.635063 599014.863821 0  261400.643658 599389.7367680001 0  261322.963374 600022.185065 0  261119.455248 600931.061306 0  261607.436504 601293.0629359999 0  260807.446929 602089.899812 0  260025.642878 602988.868697 0  259613.135827 603937.3854499999 0  259050.643123 604100.987861 0  258411.880065 603988.6335979999 0  257764.357469 604449.872569 0  257971.239668 605320.429125 0  258041.396867 605740.635381 0  257188.143339 606987.394312 0  256038.141198 608112.3554550001 0  254788.141633 609087.4026939999 0  253588.140656 609812.362881 0  252338.135706 609737.4048949999 0  251088.138116 609787.404055 0  249963.12851 610287.399466 0  248613.130524 610462.365857 0  247363.132198 610687.407659 0  246113.130532 610837.411551 0  245832.347438 610918.209918 0  245016.946433 610958.5639439999 0  244313.129646 610762.372259 0  244400.622144 611378.093316 0  243939.669208 612460.8930899999 0  242960.649733 611984.892792 0  242170.381438 611919.647351 0  241888.122919 611112.375656 0  241393.380757 610467.6456149999 0  240594.157528 611306.369822 0  240525.621947 610804.648112 0  240363.123632 610512.3745050001 0  239113.123247 610262.374278 0  239813.12126 609037.412459 0  240588.122952 607812.368199 0  241013.119545 606625.9534560001 0  241454.373249 605724.888025 0  242238.120107 604687.3993 0  243088.121248 603462.362766 0  242860.319451 603007.3932640001 0  241563.116617 603812.361344 0  241778.400913 604327.642217 0  242059.837234 604824.879102 0  241475.620201 604923.2402390001 0  241462.182234 605449.881372 0  240906.219606 605674.888222 0  240241.856192 606891.125066 0  239891.734044 607841.012479 0  239048.653431 608724.889805 0  238118.054545 608974.895967 0  238888.111029 607337.406468 0  239738.119992 606212.362729 0  240288.12044 605687.4075229999 0  240380.212307 604729.521696 0  239347.309632 604603.204501 0  238888.112036 604387.408787 0  237913.11173 604687.401386 0  236784.172023 604499.882783 0  236883.408793 603717.08334 0  236154.933927 603595.565605 0  235688.103943 602912.369264 0  235763.108033 601662.366516 0  236363.110805 600412.35884 0  236738.107995 599162.356577 0  236525.607944 598482.2412899999 0  236138.109208 599362.357613 0  235725.063048 600325.4466510001 0  235091.948926 601408.5220979999 0  235188.10921 600312.366344 0  234375.602405 600833.9674270001 0  234663.109308 599912.358011 0  234138.105122 600062.365644 0  233955.307245 599029.561063 0  233338.103791 598387.401556 0  233988.09795 597862.356384 0  235138.101489 596637.3947750001 0  235563.1039 595387.392428 0  236513.103639 594212.356312 0  237163.10684 592987.3929869999 0  238313.103031 591862.3515540001 0  239513.107028 590812.3512640001 0  240638.102135 589787.387271 0  241463.109549 588587.378486 0  242294.489816 587443.735215 0  242913.101099 586512.341804 0  243544.066915 585474.859604 0  243040.448415 585184.975583 0  242438.10214 585337.38015 0  241313.102353 586562.339499 0  240538.107104 587787.382449 0  240114.641085 588588.939407 0  239388.100256 589437.382238 0  238188.104456 590512.346358 0  236938.100507 591362.349798 0  235813.10453 592537.396388 0  234864.502938 593178.7753880001 0  234463.097651 592862.357267 0  235113.0965 591662.3545979999 0  235713.101522 590412.346099 0  235777.688431 589976.7582779999 0  234943.583145 590706.265132 0  234462.482256 591490.2841159999 0  233801.497784 592112.940187 0  233388.099101 591787.394208 0  234013.093099 590437.393065 0  234776.217248 587148.7548100001 0  235163.093726 586562.3486189999 0  235313.098918 585483.229012 0  235250.59732 584662.298153 0  235588.093896 583337.379493 0  236329.432041 582199.858992 0  237188.096234 581462.3349939999 0  237463.088521 580212.335511 0  238350.592558 579057.652616 0  238591.415797 578574.847681 0  238313.094106 577612.328905 0  239229.696732 577695.769664 0  240195.161018 577513.008613 0  240614.996733 577149.8518770001 0  240663.091715 577412.332622 0  240288.092486 578662.334085 0  239942.357258 579508.095811 0  240438.100019 580212.3334220001 0  241338.095553 580387.375355 0  241238.099828 579137.369157 0  241788.097003 577887.370889 0  241983.554649 577241.9220939999 0  242054.178239 576927.8105029999 0  242588.100699 575737.366175 0  243149.324833 574898.583978 0  243695.278626 573919.517981 0  244268.494418 573724.8454239999 0  244995.134063 573930.2767810001 0  245417.314363 573391.601898 0  243450.599125 571859.479773 0  245776.797908 572599.8353060001 0  246779.639852 572973.285167 0  248034.741935 573186.082054 0  249413.10651 573162.3205520001 0  250496.922226 573271.1521899999 0  251613.105126 573237.3551319999 0  252421.824577 572846.032906 0  253256.245022 572580.4733130001 0  253739.471933 571960.9547369999 0  254174.511864 572149.8346569999 0  254484.944333 571684.194807 0  254384.108649 570891.346712 0  254344.002752 570218.26407 0  255025.609604 570829.0294979999 0  255715.005913 570489.264586 0  256218.846343 570774.828355 0  256834.349083 570508.5908 0  257390.092515 570014.308325 0  257624.431042 568493.478911 0  259355.811717 569380.021819 0  260033.372814 569617.066669 0  262679.741751 570320.699974 0  263289.115756 569524.817815 0  263463.114338 570512.301061 0  264638.198419 570687.3443539999 0  265058.220065 571334.378467 0  265447.561421 572077.90485 0  265488.125257 573137.3446020001 0  265131.937715 573963.293593 0  265432.389648 575093.068786 0  265638.122314 576338.029955 0  265750.630817 577371.8281319999 0  265738.570663 578561.9098850001 0  265875.630866 579139.630549 0  266213.129247 579862.311842 0  266563.130472 581112.314509 0  266238.135356 582362.310259 0  265938.12863 583612.320897 0  265738.131342 584762.3210189999 0  266875.638633 585365.358768 0  264018.7239399826 593650.4646671159 0  262236.3944351029 595831.1252656333 0  241846.246678 605206.1436625 0  240200.622106 608424.8903290001 0  240943.4862974102 610939.7757535663 0  236550.6094 599787.3577085 0  238528.1212051503 608102.9081793013 0  244413.4891967989 572609.5960859474 0  236382.0474488751 598808.3067022427 0  235369.601910944 600933.5380148316 0  235413.099011 591037.3503485 0  235446.2251831186 590266.6553871984 0  240475.5921005 578037.3333535 0  240413.173949154 577324.4280286073 0  240574.037899 606283.0066440001 0  263857.9179445 593618.2891454998 0  264153.4303974913 593343.916675058 0  242042.1833925 604946.7714812499 0  241650.3099635 605465.51584375 0  244613.6985165 572229.6575395 0  236631.8579695 598822.2989335 0  235140.029068 600860.444221 0  241767.7287175 604874.0596705 0  242140.15174975 604817.0853906251 0  234781.8558075 600573.1668855001 0  242091.167571125 604881.9284359375 0  234519.3558565 600373.162719 0  254604.8337712102 583989.0014118921 0  250699.5846056537 594617.3297041012 0  250540.4796469513 602258.2940568649 0  248483.7490186612 580334.7345534252 0  258549.2190328319 577893.951823392 0  257067.0067473103 590016.5327808241 0  243285.0921999099 596333.923437875 0  248333.1386145258 589098.0389905117 0  256142.8445072741 595883.3911551933 0  260245.1368072523 583315.2785712298 0  253472.3380211276 578932.2908163272 0  246432.3347504817 599884.5019511909 0  261555.9240922556 588041.186709004 0  247293.1100123104 605823.8307887657 0  246458.2798550911 593168.8646574575 0  252840.0183145193 588226.5564648228 0  249828.2874404451 584740.7888937403 0  255409.5660975206 600458.8956828594 0  260819.9733392385 574219.403683011 0  252584.2262054711 605722.6603825617 0  254049.8830611471 592547.4852571967 0  250015.4356193061 598425.2225922942 0  245872.072249477 577604.9761853142 0  262002.1583249522 579753.4663046852 0  257732.6630933878 586227.970805314 0  250242.5556457866 577017.3316409125 0  244921.6453001869 581816.6358421432 0  256520.3890639471 580904.824006648 0  240779.0970645865 599524.6679555867 0  257100.1829219198 574459.5922545703 0  239912.2630002034 595231.1172704464 0  244703.0875078634 590068.6945953515 0  242549.5490268674 592874.3693043783 0  251586.0465921376 581796.2215047925 0  246643.189997516 596527.447801719 0  251049.7658069622 591057.6752245198 0  253014.5731561695 596998.6601086652 0  238680.2197353724 584542.2309791476 0  259715.365803504 591937.1938619445 0  254097.157218761 575731.4494927844 0  246806.6408589328 586139.0877599345 0  246136.1179750556 602959.471719323 0  253520.7033332401 602835.180253843 0  244125.4295793909 607538.9817227355 0  252546.8895354472 599881.3279113505 0  258289.0983523553 600397.640191779 0  247518.7952199645 583037.3718217331 0  263140.3959879661 582529.2228421422 0  262894.8586894067 585442.3590432997 0  256968.6320599076 593040.7691844478 0  243573.0187527719 600218.2795730785 0  258888.5766127351 595139.7745218446 0  262588.7569809347 576734.8569237856 0  259318.4257992262 580601.2540325444 0  249963.3812725965 607065.7205847671 0  257494.5307999607 583482.5893534871 0  258906.4757205145 572278.8089438241 0  237751.446593475 587300.5805003279 0  255142.4708720699 604956.7580261135 0  258485.4978753244 597756.9250383095 0  255516.7820591553 587791.39641967 0  239758.4692108706 601926.8203218657 0  255873.0092222999 577739.5085867504
[...]
<PointData  Scalars="f_32-1"> 
<DataArray  type="Float64"  Name="f_32-1"  format="ascii">4.1235320851167145e+01  4.2567386156588135e+01  4.4624398420567367e+01  4.6489113589204152e+01  4.7843844163545818e+01  4.9895033066395769e+01  5.0571515759467971e+01  5.0953579361974903e+01  5.1029586300135584e+01  5.1849970624067211e+01  5.2416775074234586e+01  5.2151385323968235e+01  5.2195737590578645e+01  5.4590831473200886e+01  5.5980603080167768e+01  5.7148741429948281e+01  5.8596890590367906e+01  6.0023761183607370e+01  5.9907915715393642e+01  6.0419065217360505e+01  6.2714890167675073e+01  6.4475117164409880e+01  6.6413809551915563e+01  6.7426376092639956e+01  6.7984995905491118e+01  6.9346938298165455e+01  6.9738572264302974e+01  7.0520661561658287e+01  7.1940319721806958e+01  7.2758758078467437e+01  7.2929641504052469e+01  7.3324380789753974e+01  7.4371338092474204e+01  7.5267568567612685e+01  7.5440015667853089e+01  7.6359165724806360e+01  7.7645073750345361e+01  7.9014278119862610e+01  8.0009213386883232e+01  8.0816924887191107e+01  8.2032273861444921e+01  8.3174057945091988e+01  8.4186293853782971e+01  8.5064788015651374e+01  8.5840446875080005e+01  8.6001838568700165e+01  8.6412804958259130e+01  8.6950836376183744e+01  8.7389614780054117e+01  8.7600025703586311e+01  8.7647711906501613e+01  8.7692520710482256e+01  8.7668440787957593e+01  8.7751528424393101e+01  8.7986210802757626e+01  8.7967237617920404e+01  8.7969881813422333e+01  8.8069952536500466e+01  8.7810107699859017e+01  8.7050506707519716e+01  8.6220770224693155e+01  8.5539199254763830e+01  8.4462902813494864e+01  8.2714157455284507e+01  8.2501623294727210e+01  8.4685755111268918e+01  8.5248612013631785e+01  8.5376161596811812e+01  8.5533752352732350e+01  8.5754363754447127e+01  8.6042482990173212e+01  8.7108358452836882e+01  8.7534038013518156e+01  8.7803449693729760e+01  8.7867816889755147e+01  8.7566879632527460e+01  8.6933847147368439e+01  8.6328669086548544e+01  8.5716809219651282e+01  8.6127584622449262e+01  8.6449170033452404e+01  8.6877731143463578e+01  8.6993957222031995e+01  8.6991397133881620e+01  8.7042679788862600e+01  8.7019976099628892e+01  8.6738592080273420e+01  8.5842426589887779e+01  8.4349069108587940e+01  8.4192675625531606e+01  8.5696102815461586e+01  8.6346966656224268e+01  8.6540302728220922e+01  8.6397772727958781e+01  8.6494959058178253e+01  8.6340932456022756e+01  8.6335399366078292e+01  8.6140874744727881e+01  8.6059498639454446e+01  8.5764982044778762e+01  8.3472166700008387e+01  8.1038649492454155e+01  7.7883069158334891e+01  7.4855543665178089e+01  7.1953082170072022e+01  6.9609711703074950e+01  6.7840937242588367e+01  6.6296872706436574e+01  6.4623447410237588e+01  6.3134316612043797e+01  6.1240091205641590e+01  6.0535222809415714e+01  6.0909780349884450e+01  6.3894730246629258e+01  6.6165268800481030e+01  6.7064993968022719e+01  6.8000052480924396e+01  6.9678687691110795e+01  7.2067776082254440e+01  7.5041056778033550e+01  7.5941518660653500e+01  7.5951779701658410e+01  7.4606647575103835e+01  7.2123169838524021e+01  7.1704390197023486e+01  7.3919345733897586e+01  7.5454336707784378e+01  7.5995807060360406e+01  7.6002381817255213e+01  7.4341600677049371e+01  6.9493002244966277e+01  6.8775577128925519e+01  6.7729922124954726e+01  6.7165236691126509e+01  6.6252760813430669e+01  6.5088230588947965e+01  6.3702346378499087e+01  6.2384762712492837e+01  6.1182188422470581e+01  6.0661050176732061e+01  6.0358748051800745e+01  6.0221054667306916e+01  5.9829744536123115e+01  5.9716364263990343e+01  5.9729898943268587e+01  6.0225480076785416e+01  6.0915923785000906e+01  6.1030668331106504e+01  5.9876659861167674e+01  5.8624874386400116e+01  5.7432435608101954e+01  5.6698575717173668e+01  5.6376239985268221e+01  5.4857385487819400e+01  5.3458901473136990e+01  5.2178361120640155e+01  5.1784284380289627e+01  5.0608662256561828e+01  4.9133702119513096e+01  4.9324545358756538e+01  4.8696092780259903e+01  4.7850123573151315e+01  4.5953149123233018e+01  4.3754024861798825e+01  4.2365634863147733e+01  4.0780492035793593e+01  3.9449882460237326e+01  3.8161361258318962e+01  3.7430348626880004e+01  3.6968190696180891e+01  3.5929348867868001e+01  3.5299937043206995e+01  3.5225604192326998e+01  3.5110357399556378e+01  3.4550544132278596e+01  3.4055446589251744e+01  3.2951103308940326e+01  3.2073913853994810e+01  3.2752219886882422e+01  3.1124276500923347e+01  3.1138920078677991e+01  3.3028878631691981e+01  3.3092708754282235e+01  3.3266159090485523e+01  3.2872499258995482e+01  3.2356262381359045e+01  3.1935913368176823e+01  3.2036260684726251e+01  3.2583831632368721e+01  3.3357362091796936e+01  3.4141037618375940e+01  3.4954337005004504e+01  3.6001225414199780e+01  3.6431578825593050e+01  3.6939509627006061e+01  3.8295557662044828e+01  4.0279388226073316e+01  4.1207679787496751e+01  4.0754834620516348e+01  4.0684572607452417e+01  5.2347641004024020e+01  6.0158956483893135e+01  8.5051479815056155e+01  8.7491731447400539e+01  8.7955897836225475e+01  8.5126590187875564e+01  8.7778573381671691e+01  4.9112680427428408e+01  8.4956436702535967e+01  8.6503413853452642e+01  7.3362996282890634e+01  7.2542870745943389e+01  5.9904395932209177e+01  5.9739820185054882e+01  8.6646075060637173e+01  5.2347898531543066e+01  5.2183314910038796e+01  8.4770394345232660e+01  8.5313314337546842e+01  4.9111753015525551e+01  8.4036721540382317e+01  8.6503476055610534e+01  8.5403508937764741e+01  8.4620960705891491e+01  8.6462496168096663e+01  8.4696752870813469e+01  8.6461960063589757e+01  4.9301504002532162e+01  6.6867094430023442e+01  7.5754514865299384e+01  5.1706899411293087e+01  3.6612036587433067e+01  5.3433767016618297e+01  7.5044528456167953e+01  6.1389590352462051e+01  6.4334037476752513e+01  4.2011206455409464e+01  4.3284655443470271e+01  7.5497160378793168e+01  4.6540091302070721e+01  8.1950586594300546e+01  6.7652698542995736e+01  5.4826756380400930e+01  5.6552124446723099e+01  6.9033864056150847e+01  3.3684699330813203e+01  7.7918745786982228e+01  6.1645496711657252e+01  7.0864723333626245e+01  5.2183930447326077e+01  3.6866647203330558e+01  4.7306679145347232e+01  4.5202525272320607e+01  5.7606666837188229e+01  4.2971198473630800e+01  8.1138620878896717e+01  3.6628026906461109e+01  7.5626821688591633e+01  6.4979268593314970e+01  6.9931403051100219e+01  5.0612448205057397e+01  7.2507858238170840e+01  6.0729535959640117e+01  6.7973098581037775e+01  6.4809552520188191e+01  5.5717710950140372e+01  3.8666472814026115e+01  5.9740935107786754e+01  7.9715666291880083e+01  7.4493325864649677e+01  8.5443250279322925e+01  7.1239741084841825e+01  6.9493002153612593e+01  5.6260574048161082e+01  3.9497134925669123e+01  4.1584247743886756e+01  5.9526999335205495e+01  7.9007719637062237e+01  6.0891666591210623e+01  3.5124028290201871e+01  3.9148885852501458e+01  8.1114776035952730e+01  4.5197869626836265e+01  3.2034880773564240e+01  6.7666303285070725e+01  7.5781591170572739e+01  6.5225738762026708e+01  5.0120095644894377e+01  8.5213752698322537e+01  3.8600691267817460e+01  5.0820355572673208e+01  5.9920465576281579e+01  6.5431617897531666e+01  5.6392284335329485e+01  4.7077637687891240e+01  4.3654222428103218e+01  5.6646748782790596e+01  4.8031379562799380e+01  4.7839076497496094e+01  4.4554191213766572e+01  4.9526758222242385e+01  8.4498643895254560e+01  7.8442308447487733e+01  5.2983521124079985e+01  8.3082588211698607e+01  7.5742829436104373e+01  7.3970863503296499e+01  8.0454806159768808e+01  6.2556834597024526e+01  5.9062204625698854e+01  6.6446909272540182e+01  7.2312475335991948e+01  5.8009851073898353e+01  7.8231365604001823e+01  5.1061490764570920e+01  6.5551276156290356e+01  3.2510837718833898e+01  4.9562472569541214e+01  6.9004085245527108e+01  7.7372558746106179e+01  6.4202851077470811e+01  7.0905839358362059e+01  6.2441851971992065e+01  7.1489614373267855e+01  3.5787297140403261e+01  5.3497974505011520e+01  5.3298126773172285e+01  7.9724091015427248e+01  6.7541474202170591e+01  3.7500795229260447e+01  7.9277491489099631e+01  6.3614490074141315e+01  8.4299038041742108e+01  3.3360874214036919e+01  8.4732725820057709e+01  8.4664376477167536e+01  5.5293158476785791e+01  5.0937702414329600e+01  8.4736033872377774e+01  8.5743310963498189e+01  8.2900813871529806e+01  8.5133639217254981e+01  7.1457031286461586e+01  3.6082725872479642e+01  8.0763894127738951e+01  7.5771130430596884e+01  5.6161505563585784e+01  5.0514599272286098e+01  4.7195782714180254e+01  8.5459881801580835e+01  8.4660298112409066e+01  5.8369190931578565e+01  8.5840541429625873e+01  8.3675772723364645e+01  8.4174401350288989e+01  8.5906276436048515e+01  5.9791338862381032e+01  4.8974158128312567e+01  7.1080364496386693e+01  3.4139662625180264e+01  4.9004425365589185e+01  3.6707477305217544e+01  6.9105513814768400e+01  8.7251392367734184e+01  6.6659706070597011e+01  7.2769085219750167e+01  8.3392962744697968e+01  6.0032456410185802e+01  3.0902966784332747e+01  7.1993745060043523e+01  3.9487441791215566e+01  5.2281059346630407e+01  8.4884994642164685e+01  8.2902205627485628e+01  6.1962141697701242e+01  8.7257577435612802e+01  4.3929439222725577e+01  8.5433147957281378e+01  6.3824212043469373e+01  3.2482613914811324e+01  3.6246265308941162e+01  3.7310557266419210e+01  7.2522538876295101e+01  8.1788440889523642e+01  8.1077793008127514e+01  6.8619687043916514e+01  8.5190923265992780e+01  5.9926393399617659e+01  4.8940242595872434e+01  4.8930905211215297e+01  3.2364340259158880e+01  8.4734353079922485e+01  8.4913173299143011e+01  8.4984302224667971e+01  7.5501908238697737e+01  8.1519802085635064e+01  8.5075961741851287e+01  8.3510725337761301e+01  6.6867152994055786e+01  8.7900212674122230e+01  8.7842224494655667e+01  6.1107963308889865e+01  3.5082009978205825e+01  6.0888243141152856e+01  8.2017099555120026e+01  5.5923763449872268e+01  6.4599794965759273e+01  8.7467498450634125e+01  6.1743657495798892e+01  7.3356997494983204e+01  4.0883431320239488e+01  5.6428178430911458e+01  5.5650371621472189e+01  5.7039006491135787e+01  8.5895818499242651e+01  5.0349599647947613e+01  5.1255898999586577e+01  4.9359400982795037e+01  5.1125577560195929e+01  4.7358357262200741e+01  3.2865042824033416e+01  3.1208117930489252e+01  5.2240596898973052e+01  5.5003391117841929e+01  7.5654333679604704e+01  7.5565295772944410e+01  8.7687687067463401e+01  6.6949433524077591e+01  6.4914504955997458e+01  6.0785998562114244e+01  6.0276940350085830e+01  6.0410847459322014e+01  6.0588058395432846e+01  6.0296104062569647e+01  6.0297997940554296e+01  6.2245446413996270e+01  6.0422331956164207e+01  6.1020454199666560e+01  6.4033264347597466e+01  6.2377731377808615e+01  5.8624595402860308e+01  6.0131534186383313e+01  4.4753491257163901e+01  4.6506591516709342e+01  4.4665317599034331e+01  4.3059058316533992e+01  4.3636104488224149e+01  4.1620770760196564e+01  4.2937730914164398e+01  4.2248620125037419e+01  3.8903476029229424e+01  3.7707183845857031e+01  3.4015139620489158e+01  3.4528882507924187e+01  3.4478173773360503e+01  3.5481282684851458e+01  3.4921603229897556e+01  3.6232848291768974e+01  3.6295677894019633e+01  3.5483893434005765e+01  3.6684190977262006e+01  3.6468314676707436e+01  3.7205971538931102e+01  3.6666659683629277e+01  3.7892604562673377e+01  4.0397842408338128e+01  3.8878086362544998e+01  4.7547073174779655e+01  4.6521527930476331e+01  4.7023618278012464e+01  5.0397726063726445e+01  6.8133697297322485e+01  6.7310815149922576e+01  6.6313478390734829e+01  6.7810496504009109e+01  7.3849173855572730e+01  7.7142181374137664e+01  7.4966676115035213e+01  7.6874404788413074e+01  5.4293842997645307e+01  4.9984192684944247e+01  5.0447704455952170e+01  5.2485455219205669e+01  3.7039171847542384e+01  3.8697388801543056e+01  3.6765844234716383e+01  3.7589128863274702e+01  3.7032646893267021e+01  3.6417799070843323e+01  5.4866822413448553e+01  5.6704894156347308e+01  5.1546295026681037e+01  5.4619800951601150e+01  5.1379993896247392e+01  7.5433463041632592e+01  7.2670551484911684e+01  6.0716870462682060e+01  6.0493919531072777e+01  6.2908987785442584e+01  5.9802355829137163e+01  6.2786053117539737e+01  6.1605140618866699e+01  6.3243286574657077e+01  6.6273863413902575e+01  6.5067084607251289e+01  3.8581928906687175e+01  4.0057138400712994e+01  4.1761476280573866e+01  4.0714619182320043e+01  4.3640281308483416e+01  4.3060409362282471e+01  4.7388994712276642e+01  4.0316982170381067e+01  4.0811298070297930e+01  4.5326364599967462e+01  4.5744218195189198e+01  7.3044314821866493e+01  7.7428634046447470e+01  7.4359918471557179e+01  7.8163126620678554e+01  8.0932535386942348e+01  7.0317322967258946e+01  6.5869259731927315e+01  6.9172751788913075e+01  6.7459592323007939e+01  5.2181133965169849e+01  5.5724722242208323e+01  5.6384303839388117e+01  5.2320120798992178e+01  7.1980805283031188e+01  6.9394421425382333e+01  6.9412199677589129e+01  6.7084508448276651e+01  3.5055456357031787e+01  3.4135723095117456e+01  6.1545525868429500e+01  6.0492782262914567e+01  5.9352602289210047e+01  7.1433659433323328e+01  6.9256602945211000e+01  7.2715331258680990e+01  6.9406783457241232e+01  5.4203541690654717e+01  5.0297205994318460e+01  5.0733769296164752e+01  5.2418802994304876e+01  5.0814785845296150e+01  5.2519178571750210e+01  3.7545244901526594e+01  3.6497015958231110e+01  3.7614745674504434e+01  3.6555226331865896e+01  3.7017468718696023e+01  3.6943230941868656e+01  4.6213571506086595e+01  4.8421195637917464e+01  4.8159806150919586e+01  4.8452592369167050e+01  4.1065937442915086e+01  4.6458815694128745e+01  4.6453270549053450e+01  4.7625743407536810e+01  4.1845253019823410e+01  4.4456730102781428e+01  5.7304003487483698e+01  5.8925759638886063e+01  5.6727435562025455e+01  5.6058426996602883e+01  4.0857177973632957e+01  4.4383588922287863e+01  4.0229451827792040e+01  4.5048826059327773e+01  3.7693778315545494e+01  3.4779684841442105e+01  3.7611504206761929e+01  3.6212062972690042e+01  3.6349186868482029e+01  3.5494026978128772e+01  3.7040707787482837e+01  6.4368578377088483e+01  6.3610431481436315e+01  6.6206046089011835e+01  6.6092165714805702e+01  7.0443401920595903e+01  4.8904618475429039e+01  4.9389107708322797e+01  7.0711028361432355e+01  6.2996352547837958e+01  5.9624894568501674e+01  5.8964648784736823e+01  6.2199675063367991e+01  6.9294580009304426e+01  6.7269650708074153e+01  6.3598194493783616e+01  6.3333296795166802e+01  5.7530425603259182e+01  5.2710250044496540e+01  3.9033853893735191e+01  3.8765005316895362e+01  3.7878661137404393e+01  5.9191172019938811e+01  6.1022530910822240e+01  7.6489452546138992e+01  7.8860563966958225e+01  7.2812605725769615e+01  7.6507725622826996e+01  7.3169256243315985e+01  7.3320043564048163e+01  6.8084989119364963e+01  6.7483887912807475e+01  5.5573911456624977e+01  3.8411974519562754e+01  5.7910361714273144e+01  5.8922369162732302e+01  3.5280503962655587e+01  3.6219481232082892e+01  3.5177230513879159e+01  4.2458287632251384e+01  4.4937366597653913e+01  5.3080300217905091e+01  4.9497596258139900e+01  5.0153736546969824e+01  5.0499452923819696e+01  5.9641140703912349e+01  5.9889311557950144e+01  6.0510538842345738e+01  6.0581508456324322e+01  6.4835762761626228e+01  6.4384847394564119e+01  5.4801459898729640e+01  5.0157342541111625e+01  4.8725043622465130e+01  5.0757091088703348e+01  4.8724597525995165e+01  4.5769438974779412e+01  4.7033314442560375e+01  5.5605215679507907e+01  5.2320741346594708e+01  7.6005457031939969e+01  5.4409991114787815e+01  5.1243910592493364e+01  6.2958859915404219e+01  6.5733417191644577e+01  6.9054153694655184e+01  6.7195464795586730e+01  3.7101021346991445e+01  3.4124834597863924e+01  3.6801853534364298e+01  5.9911565213249631e+01  3.6048735628159157e+01  6.0579087241726846e+01  4.1768429722133043e+01  3.8144911485793848e+01  6.1385178460641932e+01  4.8867582390299575e+01  6.7980851539902758e+01  3.6841778398248756e+01  3.7234435882079381e+01  3.6550390332229703e+01  3.6713821170821724e+01  3.6495910734166230e+01  6.2188723390207798e+01  4.3394175823605039e+01  4.5424756117506035e+01  4.4500448635506466e+01  7.5769868600189255e+01  5.8508211743147832e+01  5.3489827468560577e+01  5.3443131895255746e+01  5.4327213624066403e+01  3.4941863626314827e+01  6.9282815635860885e+01  6.9877798752370282e+01  3.7349657219455473e+01  3.7029128536842656e+01  4.7213589035882990e+01  4.7715720893231506e+01  4.3014405581747333e+01  5.6895621669206498e+01  6.0480104278873156e+01  6.1778877596395638e+01  5.9599075069535026e+01  6.2485022395850955e+01  3.9603250242831166e+01  3.8133392175463563e+01  3.8633203624458034e+01  3.8275948845254106e+01  6.9598305126985409e+01  3.8331219388044509e+01  3.9942819065701066e+01  4.0781049461075234e+01  5.0731461180578734e+01  5.1055824623887283e+01  5.1433317204991909e+01  4.9660661405402372e+01  3.9690433251417616e+01  3.7926559771428380e+01  3.8897669511625516e+01  4.9559207837043985e+01  7.3396127589343706e+01  7.4036089991797098e+01  7.5032140229227707e+01  6.2248931853022611e+01  6.7038963854833383e+01  5.2606289444153461e+01  4.9975701590551125e+01  4.9144291416545620e+01  5.0447922946461325e+01  6.4887905872018052e+01  6.1882575912473875e+01  6.2607282944518452e+01  3.6460946374427230e+01  3.6201445541550989e+01  3.5977870133533521e+01  5.2790983823497456e+01  5.4810791224628730e+01  5.4513737581981097e+01  5.2187961495382687e+01  6.6645529085051180e+01  3.6170260649270404e+01  3.6518823293900780e+01  3.6417496676162408e+01  6.0403949899486150e+01  6.0162461987472184e+01  6.0224457172450563e+01  4.2956353930983958e+01  4.4167936959783582e+01  4.4806936208320906e+01  3.7435281295091123e+01  3.5289646014973663e+01  3.5676221688039533e+01  6.1279815451937935e+01  6.2743052554830484e+01  6.1905215953012956e+01  6.1099282396424940e+01  6.1104501244733889e+01  6.1523485282234745e+01  6.0758194275306600e+01  4.5125193251195832e+01  3.5760232651069025e+01  4.8009436992462966e+01  6.8672008041817804e+01  5.1392403441752080e+01  5.0835607366488276e+01  3.6678342426509410e+01  3.7606561562781955e+01  3.7750432923489882e+01  3.8944904221891051e+01  3.8253792338455561e+01  3.7248329145668961e+01  5.1368962997398540e+01  5.0391415702971152e+01  5.0391869875652176e+01  6.1604677174062807e+01  6.2260878180922575e+01  3.7845388480320956e+01  3.8641172875152193e+01  4.1628253521232431e+01  4.2094168023027976e+01  4.6634700980371981e+01  4.0402086201392883e+01  4.0485618237979928e+01  3.9747988843050351e+01  4.7727645726390953e+01  7.5288633823041053e+01  5.2564916875924148e+01  5.4395808401833754e+01  5.3312083929087486e+01  6.7923649861757767e+01  6.8572912880237055e+01  6.7300476538486848e+01  5.1514715000943163e+01  5.3540722247519824e+01  5.1728023892824012e+01  4.5089375179817431e+01  5.5860068154937913e+01  5.5277387798268023e+01  3.8338319882634195e+01  3.7755310428582270e+01  6.5270163215446573e+01  6.4990001909012932e+01  6.5946897357756725e+01  3.8249557282728873e+01  3.6156083979214650e+01  </DataArray> 
</PointData> 
</Piece>
</UnstructuredGrid>
</VTKFile>