<?xml version="1.0"?>
<VTKFile type="UnstructuredGrid"  version="0.1"  >
<UnstructuredGrid>
<Piece  NumberOfPoints="784" NumberOfCells="1320">
<Points>
<DataArray  type="Float64"  NumberOfComponents="3"  format="ascii">266913.131276 586512.314988 0  266738.13716 587762.325998 0  266363.132677 589012.328643 0  266175.641078 590169.601714 0  265666.575631 591040.7699119999 0  264875.64001 591687.766419 0  264900.636161 591845.049083 0  266088.14152 592012.3229499999 0  265561.959259 592661.17101 0  264288.136855 593037.368683 0  263865.194033 593999.8486949999 0  263850.641856 593236.729596 0  263625.634872 592756.525286 0  262689.574249 593299.848918 0  262475.636737 594003.0907310001 0  261934.554452 594340.929792 0  261725.631329 594932.094409 0  261729.256443 595728.498809 0  262138.136044 595012.330523 0  262288.141035 596262.333669 0  261488.994028 597511.480605 0  261234.15567 598316.338928 0  260815.635063 599014.863821 0  261400.643658 599389.7367680001 0  261322.963374 600022.185065 0  261119.455248 600931.061306 0  261607.436504 601293.0629359999 0  260807.446929 602089.899812 0  260025.642878 602988.868697 0  259613.135827 603937.3854499999 0  259050.643123 604100.987861 0  258411.880065 603988.6335979999 0  257764.357469 604449.872569 0  257971.239668 605320.429125 0  258041.396867 605740.635381 0  257188.143339 606987.394312 0  256038.141198 608112.3554550001 0  254788.141633 609087.4026939999 0  253588.140656 609812.362881 0  252338.135706 609737.4048949999 0  251088.138116 609787.404055 0  249963.12851 610287.399466 0  248613.130524 610462.365857 0  247363.132198 610687.407659 0  246113.130532 610837.411551 0  245832.347438 610918.209918 0  245016.946433 610958.5639439999 0  244313.129646 610762.372259 0  244400.622144 611378.093316 0  243939.669208 612460.8930899999 0  242960.649733 611984.892792 0  242170.381438 611919.647351 0  241888.122919 611112.375656 0  241393.380757 610467.6456149999 0  240594.157528 611306.369822 0  240525.621947 610804.648112 0  240363.123632 610512.3745050001 0  239113.123247 610262.374278 0  239813.12126 609037.412459 0  240588.122952 607812.368199 0  241013.119545 606625.9534560001 0  241454.373249 605724.888025 0  242238.120107 604687.3993 0  243088.121248 603462.362766 0  242860.319451 603007.3932640001 0  241563.116617 603812.361344 0  241778.400913 604327.642217 0  242059.837234 604824.879102 0  241475.620201 604923.2402390001 0  241462.182234 605449.881372 0  240906.219606 605674.888222 0  240241.856192 606891.125066 0  239891.734044 607841.012479 0  239048.653431 608724.889805 0  238118.054545 608974.895967 0  238888.111029 607337.406468 0  239738.119992 606212.362729 0  240288.12044 605687.4075229999 0  240380.212307 604729.521696 0  239347.309632 604603.204501 0  238888.112036 604387.408787 0  237913.11173 604687.401386 0  236784.172023 604499.882783 0  236883.408793 603717.08334 0  236154.933927 603595.565605 0  235688.103943 602912.369264 0  235763.108033 601662.366516 0  236363.110805 600412.35884 0  236738.107995 599162.356577 0  236525.607944 598482.2412899999 0  236138.109208 599362.357613 0  235725.063048 600325.4466510001 0  235091.948926 601408.5220979999 0  235188.10921 600312.366344 0  234375.602405 600833.9674270001 0  234663.109308 599912.358011 0  234138.105122 600062.365644 0  233955.307245 599029.561063 0  233338.103791 598387.401556 0  233988.09795 597862.356384 0  235138.101489 596637.3947750001 0  235563.1039 595387.392428 0  236513.103639 594212.356312 0  237163.10684 592987.3929869999 0  238313.103031 591862.3515540001 0  239513.107028 590812.3512640001 0  240638.102135 589787.387271 0  241463.109549 588587.378486 0  242294.489816 587443.735215 0  242913.101099 586512.341804 0  243544.066915 585474.859604 0  243040.448415 585184.975583 0  242438.10214 585337.38015 0  241313.102353 586562.339499 0  240538.107104 587787.382449 0  240114.641085 588588.939407 0  239388.100256 589437.382238 0  238188.104456 590512.346358 0  236938.100507 591362.349798 0  235813.10453 592537.396388 0  234864.502938 593178.7753880001 0  234463.097651 592862.357267 0  235113.0965 591662.3545979999 0  235713.101522 590412.346099 0  235777.688431 589976.7582779999 0  234943.583145 590706.265132 0  234462.482256 591490.2841159999 0  233801.497784 592112.940187 0  233388.099101 591787.394208 0  234013.093099 590437.393065 0  234776.217248 587148.7548100001 0  235163.093726 586562.3486189999 0  235313.098918 585483.229012 0  235250.59732 584662.298153 0  235588.093896 583337.379493 0  236329.432041 582199.858992 0  237188.096234 581462.3349939999 0  237463.088521 580212.335511 0  238350.592558 579057.652616 0  238591.415797 578574.847681 0  238313.094106 577612.328905 0  239229.696732 577695.769664 0  240195.161018 577513.008613 0  240614.996733 577149.8518770001 0  240663.091715 577412.332622 0  240288.092486 578662.334085 0  239942.357258 579508.095811 0  240438.100019 580212.3334220001 0  241338.095553 580387.375355 0  241238.099828 579137.369157 0  241788.097003 577887.370889 0  241983.554649 577241.9220939999 0  242054.178239 576927.8105029999 0  242588.100699 575737.366175 0  243149.324833 574898.583978 0  243695.278626 573919.517981 0  244268.494418 573724.8454239999 0  244995.134063 573930.2767810001 0  245417.314363 573391.601898 0  243450.599125 571859.479773 0  245776.797908 572599.8353060001 0  246779.639852 572973.285167 0  248034.741935 573186.082054 0  249413.10651 573162.3205520001 0  250496.922226 573271.1521899999 0  251613.105126 573237.3551319999 0  252421.824577 572846.032906 0  253256.245022 572580.4733130001 0  253739.471933 571960.9547369999 0  254174.511864 572149.8346569999 0  254484.944333 571684.194807 0  254384.108649 570891.346712 0  254344.002752 570218.26407 0  255025.609604 570829.0294979999 0  255715.005913 570489.264586 0  256218.846343 570774.828355 0  256834.349083 570508.5908 0  257390.092515 570014.308325 0  257624.431042 568493.478911 0  259355.811717 569380.021819 0  260033.372814 569617.066669 0  262679.741751 570320.699974 0  263289.115756 569524.817815 0  263463.114338 570512.301061 0  264638.198419 570687.3443539999 0  265058.220065 571334.378467 0  265447.561421 572077.90485 0  265488.125257 573137.3446020001 0  265131.937715 573963.293593 0  265432.389648 575093.068786 0  265638.122314 576338.029955 0  265750.630817 577371.8281319999 0  265738.570663 578561.9098850001 0  265875.630866 579139.630549 0  266213.129247 579862.311842 0  266563.130472 581112.314509 0  266238.135356 582362.310259 0  265938.12863 583612.320897 0  265738.131342 584762.3210189999 0  266875.638633 585365.358768 0  264018.7239399826 593650.4646671159 0  262236.3944351029 595831.1252656333 0  241846.246678 605206.1436625 0  240200.622106 608424.8903290001 0  240943.4862974102 610939.7757535663 0  236550.6094 599787.3577085 0  238528.1212051503 608102.9081793013 0  244413.4891967989 572609.5960859474 0  236382.0474488751 598808.3067022427 0  235369.601910944 600933.5380148316 0  235413.099011 591037.3503485 0  235446.2251831186 590266.6553871984 0  240475.5921005 578037.3333535 0  240413.173949154 577324.4280286073 0  240574.037899 606283.0066440001 0  263857.9179445 593618.2891454998 0  264153.4303974913 593343.916675058 0  242042.1833925 604946.7714812499 0  241650.3099635 605465.51584375 0  244613.6985165 572229.6575395 0  236631.8579695 598822.2989335 0  235140.029068 600860.444221 0  241767.7287175 604874.0596705 0  242140.15174975 604817.0853906251 0  234781.8558075 600573.1668855001 0  242091.167571125 604881.9284359375 0  234519.3558565 600373.162719 0  254604.8337712102 583989.0014118921 0  250699.5846056537 594617.3297041012 0  250540.4796469513 602258.2940568649 0  248483.7490186612 580334.7345534252 0  258549.2190328319 577893.951823392 0  257067.0067473103 590016.5327808241 0  243285.0921999099 596333.923437875 0  248333.1386145258 589098.0389905117 0  256142.8445072741 595883.3911551933 0  260245.1368072523 583315.2785712298 0  253472.3380211276 578932.2908163272 0  246432.3347504817 599884.5019511909 0  261555.9240922556 588041.186709004 0  247293.1100123104 605823.8307887657 0  246458.2798550911 593168.8646574575 0  252840.0183145193 588226.5564648228 0  249828.2874404451 584740.7888937403 0  255409.5660975206 600458.8956828594 0  260819.9733392385 574219.403683011 0  252584.2262054711 605722.6603825617 0  254049.8830611471 592547.4852571967 0  250015.4356193061 598425.2225922942 0  245872.072249477 577604.9761853142 0  262002.1583249522 579753.4663046852 0  257732.6630933878 586227.970805314 0  250242.5556457866 577017.3316409125 0  244921.6453001869 581816.6358421432 0  256520.3890639471 580904.824006648 0  240779.0970645865 599524.6679555867 0  257100.1829219198 574459.5922545703 0  239912.2630002034 595231.1172704464 0  244703.0875078634 590068.6945953515 0  242549.5490268674 592874.3693043783 0  251586.0465921376 581796.2215047925 0  246643.189997516 596527.447801719 0  251049.7658069622 591057.6752245198 0  253014.5731561695 596998.6601086652 0  238680.2197353724 584542.2309791476 0  259715.365803504 591937.1938619445 0  254097.157218761 575731.4494927844 0  246806.6408589328 586139.0877599345 0  246136.1179750556 602959.471719323 0  253520.7033332401 602835.180253843 0  244125.4295793909 607538.9817227355 0  252546.8895354472 599881.3279113505 0  258289.0983523553 600397.640191779 0  247518.7952199645 583037.3718217331 0  263140.3959879661 582529.2228421422 0  262894.8586894067 585442.3590432997 0  256968.6320599076 593040.7691844478 0  243573.0187527719 600218.2795730785 0  258888.5766127351 595139.7745218446 0  262588.7569809347 576734.8569237856 0  259318.4257992262 580601.2540325444 0  249963.3812725965 607065.7205847671 0  257494.5307999607 583482.5893534871 0  258906.4757205145 572278.8089438241 0  237751.446593475 587300.5805003279 0  255142.4708720699 604956.7580261135 0  258485.4978753244 597756.9250383095 0  255516.7820591553 587791.39641967 0  239758.4692108706 601926.8203218657 0  255873.0092222999 577739.5085867504
[...]
<PointData  Scalars="f_32-1"> 
<DataArray  type="Float64"  Name="f_32-1"  format="ascii">4.1289491819285665e+01  4.2617687559957176e+01  4.4665993879542214e+01  4.6521847346581026e+01  4.7872797945970262e+01  4.9926245224229731e+01  5.0603520575482555e+01  5.1003414746905335e+01  5.1070235605716285e+01  5.1848078935041933e+01  5.2379832805998767e+01  5.2135798466376556e+01  5.2209042065647282e+01  5.4628487356123834e+01  5.6030564524985408e+01  5.7206877174647090e+01  5.8666866578804004e+01  6.0113016789232979e+01  6.0018240534748408e+01  6.0511779248376044e+01  6.2780556726551339e+01  6.4538982432459434e+01  6.6485757560111551e+01  6.7506267887511214e+01  6.8062710786259387e+01  6.9411864652378782e+01  6.9800832100456972e+01  7.0570325303217714e+01  7.1973105585862854e+01  7.2787273153300532e+01  7.2960478670081429e+01  7.3365380073890805e+01  7.4429524777874846e+01  7.5334295945707836e+01  7.5507672310444477e+01  7.6425102775144666e+01  7.7705505873600501e+01  7.9066683533521598e+01  8.0051425630587232e+01  8.0859947206713727e+01  8.2075284273425780e+01  8.3216192388775866e+01  8.4230118532998446e+01  8.5111121160765180e+01  8.5889811189128480e+01  8.6052388580530760e+01  8.6467221715841049e+01  8.7008581911938407e+01  8.7446514801449922e+01  8.7654623104583806e+01  8.7699866810123908e+01  8.7742854468092190e+01  8.7720999834267431e+01  8.7805186464015051e+01  8.8034240065594787e+01  8.8015978900525482e+01  8.8018892174423314e+01  8.8116072771604195e+01  8.7863467863133749e+01  8.7110714433876055e+01  8.6281608943924937e+01  8.5601185645889572e+01  8.4522552007389777e+01  8.2770140305839817e+01  8.2564192417814155e+01  8.4757124607041078e+01  8.5322057580105209e+01  8.5450403776845718e+01  8.5606470541017273e+01  8.5825354916857805e+01  8.6112468911999585e+01  8.7177111716551593e+01  8.7597643243845809e+01  8.7857263432814094e+01  8.7918394279144948e+01  8.7629380066172033e+01  8.7003411367872957e+01  8.6398309748636024e+01  8.5784747238036715e+01  8.6187019715938561e+01  8.6504981980745526e+01  8.6933664920229347e+01  8.7051949980379575e+01  8.7047743775170190e+01  8.7097558978658313e+01  8.7073590274675567e+01  8.6791838305939578e+01  8.5892214730824278e+01  8.4397659474940696e+01  8.4236882445204529e+01  8.5737821078673051e+01  8.6386174243129787e+01  8.6579431489177125e+01  8.6435327709340740e+01  8.6529082802896781e+01  8.6374757853018949e+01  8.6366673778427725e+01  8.6169439621593469e+01  8.6085803088971176e+01  8.5792846514869709e+01  8.3503493408674515e+01  8.1076578061291215e+01  7.7938856958780846e+01  7.4931917671772041e+01  7.2051623421929662e+01  6.9701010848747075e+01  6.7909138220219432e+01  6.6342507851859835e+01  6.4658588443456978e+01  6.3160431092284327e+01  6.1246106683581203e+01  6.0545904536854636e+01  6.0938181834463649e+01  6.3917705519836794e+01  6.6203429260803020e+01  6.7114567981730048e+01  6.8058518397155893e+01  6.9744841292491230e+01  7.2119055543668466e+01  7.5018850935889873e+01  7.5882197561017094e+01  7.5891920249322752e+01  7.4599011147320553e+01  7.2173234000129000e+01  7.1755110531041666e+01  7.3926677692358155e+01  7.5421782267148046e+01  7.5944928251927578e+01  7.5950836926469037e+01  7.4338983508827283e+01  6.9533155654047036e+01  6.8814107067782871e+01  6.7762007671386812e+01  6.7192466860192056e+01  6.6281079830518365e+01  6.5125155805621077e+01  6.3743551012430373e+01  6.2424069128984762e+01  6.1229171393625982e+01  6.0714493575402990e+01  6.0413423793789967e+01  6.0286129051104020e+01  5.9918389412067292e+01  5.9811126499270173e+01  5.9823936899870688e+01  6.0299625556981589e+01  6.0976638837257276e+01  6.1085329594683309e+01  5.9913295725904092e+01  5.8645276480231921e+01  5.7449426515087104e+01  5.6713201350169861e+01  5.6390933834695304e+01  5.4877654922055370e+01  5.3492029971292865e+01  5.2229670907541930e+01  5.1838301178673802e+01  5.0662287757051111e+01  4.9189189256600976e+01  4.9343238295185515e+01  4.8752275585590191e+01  4.7914863702791713e+01  4.6008687288809050e+01  4.3799376385642688e+01  4.2400828593422133e+01  4.0801972476690530e+01  3.9465348501653168e+01  3.8178997339670282e+01  3.7448707634858437e+01  3.6986534999666851e+01  3.5954748549436410e+01  3.5335408408982310e+01  3.5263354034898548e+01  3.5150288787600331e+01  3.4600357876576147e+01  3.4103456398197793e+01  3.3002609449673336e+01  3.2133541361234592e+01  3.2683729133858158e+01  3.1176774986987841e+01  3.1167978777414870e+01  3.3045477424616102e+01  3.3135915991308039e+01  3.3257391615320003e+01  3.2894240471266812e+01  3.2411013390144966e+01  3.2002703524462412e+01  3.2084877570027622e+01  3.2621567580429442e+01  3.3393798914581602e+01  3.4177241584515052e+01  3.4970032522342585e+01  3.5993719949223504e+01  3.6441267908288943e+01  3.6984141826202070e+01  3.8342567933336866e+01  4.0279860880072746e+01  4.1213084603144978e+01  4.0813085317535872e+01  4.0747377247428780e+01  5.2316177082709949e+01  6.0256801811758621e+01  8.5113301145915571e+01  8.7549731018789629e+01  8.8004853276023169e+01  8.5175826509295248e+01  8.7833466280831360e+01  4.9144461679508368e+01  8.4998764242552369e+01  8.6542452447732316e+01  7.3390361906682458e+01  7.2577256602640617e+01  5.9989962858386278e+01  5.9833324192965961e+01  8.6715568752787178e+01  5.2316386159429797e+01  5.2164113945609586e+01  8.4831183835069766e+01  8.5375140517384324e+01  4.9143481269208749e+01  8.4084360811454317e+01  8.6542514090882790e+01  8.5477387955274096e+01  8.4681197342728055e+01  8.6497180629379528e+01  8.4757232106960998e+01  8.6496615019890569e+01  4.9234975960695735e+01  6.6823263622442425e+01  7.5782993870333655e+01  5.1644509068728070e+01  3.6572971942034044e+01  5.3201885835022203e+01  7.5095721320505291e+01  6.1295776771586134e+01  6.4373415857699811e+01  4.2027666642220481e+01  4.3182373958431128e+01  7.5435472269908090e+01  4.6585433222358780e+01  8.2016645963188992e+01  6.7609387699743294e+01  5.4574744556635878e+01  5.6557975220528775e+01  6.8938680761946500e+01  3.3697005819288236e+01  7.7989948348288380e+01  6.1640233947032449e+01  7.0725171322421261e+01  5.2185183898441444e+01  3.6848697430740344e+01  4.7098288127921151e+01  4.5180643232786430e+01  5.7605313349532508e+01  4.2953042730424578e+01  8.1208474988006301e+01  3.6633916699440611e+01  7.5707733731024177e+01  6.4775366404903025e+01  6.9989894976819443e+01  5.0647034752935795e+01  7.2533313106815839e+01  6.0567553388421224e+01  6.7907738399794738e+01  6.4842456777139887e+01  5.5731956098825201e+01  3.8638500897604423e+01  5.9719693856458512e+01  7.9744906261521393e+01  7.4536262613894351e+01  8.5506097772087784e+01  7.1188718229701522e+01  6.9522111110996320e+01  5.6286684680955787e+01  3.9511806874505226e+01  4.1644174967357806e+01  5.9489067836953012e+01  7.9074565656506778e+01  6.0953581904336403e+01  3.5140026342990517e+01  3.9121228842326232e+01  8.1177920312213956e+01  4.5161636629590113e+01  3.2106332827562980e+01  6.7721265970439362e+01  7.5848134211376006e+01  6.5277221800092377e+01  4.9772018101128346e+01  8.5232787169621631e+01  3.8543640679728490e+01  5.0871885436434823e+01  5.9954243344135556e+01  6.5398500078522062e+01  5.6410704972265798e+01  4.7082113635287882e+01  4.3705313907154228e+01  5.6499648480426238e+01  4.8013078035772352e+01  4.7855359363972660e+01  4.4592687435285285e+01  4.9427657809387640e+01  8.4559770946331895e+01  7.8510349314415762e+01  5.2996485255343956e+01  8.3143385511727871e+01  7.5795648471281268e+01  7.3828386768623659e+01  8.0523891052649546e+01  6.2596095892060781e+01  5.9102000503224204e+01  6.6332929122836404e+01  7.2347080248973327e+01  5.7985200238473134e+01  7.8255232165873196e+01  5.0818609801260479e+01  6.5579314818889756e+01  3.2546422040794845e+01  4.9477609977847138e+01  6.8998549286870571e+01  7.7450408662022610e+01  6.3967646710371433e+01  7.0951353423439684e+01  6.2299954983428840e+01  7.1580452248218208e+01  3.5764739632695125e+01  5.3424323584924515e+01  5.3338315881927421e+01  7.9781157919520680e+01  6.7431389412822298e+01  3.7488636536151290e+01  7.9339902916025494e+01  6.3611098444257948e+01  8.4332346406445581e+01  3.3387396863537020e+01  8.4795637938530575e+01  8.4725955766244496e+01  5.5313450076993028e+01  5.0969434221242466e+01  8.4797050431966497e+01  8.5800221209756316e+01  8.2957057223451358e+01  8.5168366460835045e+01  7.1491304463319395e+01  3.6101352970870977e+01  8.0812860815048182e+01  7.5838385762299851e+01  5.6180125463933756e+01  5.0545497058934117e+01  4.7252171947621562e+01  8.5522764496583605e+01  8.4720753179018843e+01  5.8421348363069022e+01  8.5887111940551137e+01  8.3732007579901619e+01  8.4232993053534642e+01  8.5958687920695226e+01  5.9810446495119585e+01  4.9015415154473828e+01  7.1142955908165050e+01  3.4160251841945609e+01  4.9055843600415976e+01  3.6653217600151500e+01  6.9160172551071128e+01  8.7313033987334876e+01  6.6697904276903742e+01  7.2793262423758847e+01  8.3443387723098240e+01  6.0076366761387291e+01  3.0961652537917182e+01  7.2030531089928019e+01  3.9494218428416261e+01  5.2325473674002289e+01  8.4924749861218473e+01  8.2941879563239311e+01  6.2014380227024716e+01  8.7318617927349777e+01  4.3939199155617537e+01  8.5470241703995896e+01  6.3884001680197841e+01  3.2510542643577466e+01  3.6265481276811556e+01  3.7337938444667856e+01  7.2555699469748134e+01  8.1844428780121945e+01  8.1143442771832824e+01  6.8674393714981875e+01  8.5253107743323980e+01  5.9992042660054757e+01  4.8985265214092600e+01  4.8975352711422588e+01  3.2398990715820119e+01  8.4794973114320342e+01  8.4974623607862767e+01  8.5046050571075909e+01  7.5569323076081531e+01  8.1576666687797015e+01  8.5129467696888725e+01  8.3564570914903925e+01  6.6914918269766076e+01  8.7950865621766653e+01  8.7894806622206588e+01  6.1145991857593096e+01  3.5075390749197865e+01  6.0943625630325208e+01  8.2073168581614851e+01  5.5968849928399074e+01  6.4638477850373874e+01  8.7523357717636429e+01  6.1798039232621342e+01  7.3407495670277228e+01  4.0902561263127886e+01  5.6444050365584495e+01  5.5666651242066067e+01  5.7056843551930037e+01  8.5932722139763925e+01  5.0381049562627425e+01  5.1279616465439084e+01  4.9397758105940113e+01  5.1149215345901013e+01  4.7398733662031006e+01  3.2873442702086962e+01  3.1270225074972341e+01  5.2282790380454706e+01  5.5025455196471775e+01  7.5607553309860378e+01  7.5522124784371329e+01  8.7743470236178453e+01  6.6975148214559113e+01  6.4887675965803680e+01  6.0773452629961454e+01  6.0293402642192078e+01  6.0418600497967240e+01  6.0608351190490666e+01  6.0307110223271060e+01  6.0325875424950816e+01  6.2273363020554143e+01  6.0458517887223678e+01  6.1085704206245069e+01  6.4073463761848785e+01  6.2432141554418415e+01  5.8650622995780644e+01  6.0161812320163264e+01  4.4803265402451373e+01  4.6542689286050134e+01  4.4703869289322860e+01  4.3100599736902588e+01  4.3669584669745298e+01  4.1649261239843682e+01  4.2965080154179603e+01  4.2269928478477041e+01  3.8922685878806334e+01  3.7731215050375404e+01  3.4044588490035039e+01  3.4557381166378846e+01  3.4500058608871790e+01  3.5481151464762490e+01  3.4929520644401755e+01  3.6229299481117650e+01  3.6270657749853129e+01  3.5467210743560031e+01  3.6711784390160460e+01  3.6452401347598716e+01  3.7217204573640707e+01  3.6670463992759977e+01  3.7921758113494683e+01  4.0371903370246741e+01  3.8889234516660892e+01  4.7272138035544501e+01  4.6514200642293353e+01  4.6943102457741773e+01  5.0242114549359755e+01  6.7966867861917891e+01  6.7244009783726312e+01  6.6294647345421282e+01  6.7765845295079401e+01  7.3861170407377458e+01  7.7196394043106025e+01  7.4918580888312221e+01  7.6890000916331246e+01  5.4230964886147760e+01  4.9963564905738515e+01  5.0344296789233816e+01  5.2363204738244661e+01  3.6992293255182432e+01  3.8673356764272441e+01  3.6750317067978628e+01  3.7556827743194468e+01  3.7023019637811188e+01  3.6359438783349923e+01  5.4802158156317162e+01  5.6546384595125772e+01  5.1239128054095389e+01  5.4401935614401644e+01  5.1181338434257057e+01  7.5484160615176009e+01  7.2706469352979809e+01  6.0570386305154337e+01  6.0400068435261218e+01  6.2797297914746849e+01  5.9763045786242529e+01  6.2629047938274795e+01  6.1384417934949383e+01  6.3266957593846605e+01  6.6263391053983497e+01  6.5101907586575095e+01  3.8573563560991197e+01  4.0074470635257541e+01  4.1805062020202428e+01  4.0702516877077663e+01  4.3589519633170113e+01  4.3002294928946462e+01  4.7340431117720989e+01  4.0227063833674215e+01  4.0712722280332642e+01  4.5273141912278909e+01  4.5669503656257007e+01  7.2906832399731741e+01  7.7390540104366011e+01  7.4211999067667051e+01  7.8169978056155216e+01  8.0988811658240920e+01  7.0357042731421558e+01  6.5701369680544573e+01  6.9182565682257263e+01  6.7349612692864554e+01  5.1878932028257402e+01  5.5509493305193729e+01  5.6245515691402069e+01  5.2039131274948083e+01  7.1960580509540037e+01  6.9293272946626132e+01  6.9387325429090509e+01  6.6944357689676451e+01  3.5064207465419990e+01  3.4176450650873001e+01  6.1513138304852838e+01  6.0431553909048560e+01  5.9284449244215452e+01  7.1355397810069974e+01  6.9128444619330665e+01  7.2589432157469744e+01  6.9274849893863234e+01  5.4210670078439129e+01  5.0299793086976550e+01  5.0688250275805316e+01  5.2398282206647444e+01  5.0838013214847749e+01  5.2548793403615605e+01  3.7554021826147043e+01  3.6468684403388650e+01  3.7586959313728286e+01  3.6521355037650771e+01  3.6999656904394357e+01  3.6892150586957172e+01  4.6097304453503902e+01  4.8043780201729717e+01  4.7994238233157830e+01  4.8062516199277439e+01  4.1029579597236037e+01  4.6428472665289320e+01  4.6446241124995822e+01  4.7582744781089971e+01  4.1820677593965620e+01  4.4445156828336209e+01  5.7240342293371747e+01  5.8950234637715454e+01  5.6737425279893330e+01  5.5983137877767497e+01  4.0845058880848129e+01  4.4383025702608002e+01  4.0188442120104106e+01  4.5039815307671574e+01  3.7673763037967603e+01  3.4799150509472007e+01  3.7581953170338558e+01  3.6200889286611151e+01  3.6361304142034420e+01  3.5509090681906009e+01  3.7046989808710947e+01  6.4055573170771652e+01  6.3431420415330152e+01  6.6005809316593400e+01  6.6029601516211926e+01  7.0485266420256380e+01  4.8925181869517736e+01  4.9393647593963173e+01  7.0724514159386246e+01  6.2879832076373631e+01  5.9521697615057207e+01  5.8828345350179667e+01  6.2124467852883839e+01  6.9196900451117045e+01  6.7185043423109008e+01  6.3631416298033891e+01  6.3371586141820814e+01  5.7525468991422194e+01  5.2689214418283733e+01  3.8944723547869181e+01  3.8772141055588783e+01  3.7890487240973641e+01  5.9199606088084906e+01  6.0911464152816059e+01  7.6406161471238320e+01  7.8875341187481212e+01  7.2810422812656554e+01  7.6573365257179461e+01  7.3195544838323102e+01  7.3283559799407897e+01  6.7954008069226560e+01  6.7433571407323612e+01  5.5402184397504179e+01  3.8419185791024866e+01  5.7749880903845209e+01  5.8959939422905300e+01  3.5292830982676854e+01  3.6162062276530428e+01  3.5175234171036124e+01  4.2461757645821464e+01  4.4937265484950871e+01  5.2836177490392110e+01  4.9167395809619393e+01  4.9811027578557571e+01  5.0520608204195902e+01  5.9669013262981942e+01  5.9931597668775765e+01  6.0542059281954870e+01  6.0634226179345376e+01  6.4744762669929500e+01  6.4335472460738288e+01  5.4794237322926506e+01  5.0183098318177464e+01  4.8667611637919407e+01  5.0774977667158872e+01  4.8700934633014910e+01  4.5784109267144139e+01  4.7024185538657456e+01  5.5567778017335051e+01  5.2246427943358491e+01  7.5939149232171829e+01  5.4262828955447191e+01  5.1160749590144775e+01  6.2684460033037766e+01  6.5463265852244547e+01  6.9055137342343059e+01  6.7148197082761300e+01  3.7064493944264278e+01  3.4146099223657650e+01  3.6821042355197349e+01  5.9933933116088610e+01  3.5996378996321646e+01  6.0643926126509250e+01  4.1765223458709542e+01  3.8173109258401709e+01  6.1422779846250371e+01  4.8624668647740776e+01  6.7868341433277550e+01  3.6787350388637911e+01  3.7213452581624416e+01  3.6522070584397419e+01  3.6695217210311363e+01  3.6459904558645050e+01  6.1987157222495576e+01  4.3310872364232694e+01  4.5329811283444364e+01  4.4401508058156480e+01  7.5664882572477893e+01  5.8338198476808799e+01  5.3205044535429977e+01  5.3168863097148105e+01  5.4108363579045403e+01  3.4945549760703592e+01  6.9112712312738395e+01  6.9719106374915455e+01  3.7341507277084006e+01  3.7026543913748085e+01  4.6932721720528811e+01  4.7370310277018419e+01  4.2986839383516212e+01  5.6792977632998159e+01  6.0298825390463129e+01  6.1629422588114423e+01  5.9422930089219577e+01  6.2374788782851844e+01  3.9570225608821538e+01  3.8106985706121783e+01  3.8626779586823844e+01  3.8270162071466238e+01  6.9500493295840812e+01  3.8302413245733170e+01  3.9920375952433957e+01  4.0764211686349256e+01  5.0402318448469906e+01  5.0736385051841680e+01  5.1134275470092462e+01  4.9294068089746553e+01  3.9606915257930588e+01  3.7882814949122192e+01  3.8819187510685246e+01  4.9334965742439373e+01  7.3238917078580528e+01  7.3876351434185892e+01  7.4899871818111833e+01  6.2284773189244831e+01  6.6900055056996962e+01  5.2405908899232770e+01  4.9874556819132721e+01  4.9062289302638447e+01  5.0354869715025217e+01  6.4611751641895864e+01  6.1668294539716172e+01  6.2384327122279480e+01  3.6407248101006957e+01  3.6153844178874103e+01  3.5952953126212492e+01  5.2749036561034202e+01  5.4727117769360987e+01  5.4360355126574859e+01  5.2113652028354132e+01  6.6440344673639274e+01  3.6124159589416351e+01  3.6446406463428318e+01  3.6353210082787470e+01  6.0461213610010823e+01  6.0217272754003183e+01  6.0281848968074627e+01  4.2948174812270032e+01  4.4166469259545487e+01  4.4819467129056257e+01  3.7443006286011418e+01  3.5274297050702927e+01  3.5643008708647152e+01  6.1346392395509802e+01  6.2795009813685233e+01  6.1967398935661826e+01  6.1155980126705565e+01  6.1167914425117665e+01  6.1569522242381574e+01  6.0825007279261591e+01  4.5149864688602399e+01  3.5725020021616913e+01  4.7666413691230360e+01  6.8512956370842943e+01  5.1285424854487474e+01  5.0729652874892039e+01  3.6617856082954710e+01  3.7594792342729114e+01  3.7713575775938921e+01  3.8924453274779722e+01  3.8237674261410803e+01  3.7230017607705896e+01  5.1076235707884962e+01  5.0051732085371228e+01  5.0115455758001630e+01  6.1443709776692202e+01  6.2007309845370145e+01  3.7849896853405461e+01  3.8655208836409606e+01  4.1558260698699456e+01  4.2054321810394519e+01  4.6563555341616457e+01  4.0349965423126420e+01  4.0418099807804708e+01  3.9648919388198365e+01  4.7691394118843192e+01  7.5156787997697691e+01  5.2291215996914005e+01  5.4172495513432047e+01  5.3091394631422062e+01  6.7785622443992921e+01  6.8448946319172848e+01  6.7151246296241069e+01  5.1481142783786289e+01  5.3525500356648493e+01  5.1676882891610020e+01  4.5092096269045044e+01  5.5709874670390668e+01  5.5240585075425471e+01  3.8280453838327205e+01  3.7747259434257415e+01  6.4989007424318643e+01  6.4685413913403551e+01  6.5689144867484316e+01  3.8263126055273851e+01  3.6097798996457847e+01  </DataArray> 
</PointData> 
</Piece>
</UnstructuredGrid>
</VTKFile>