<?xml version="1.0"?>
<VTKFile type="UnstructuredGrid"  version="0.1"  >
<UnstructuredGrid>
<Piece  NumberOfPoints="784" NumberOfCells="1320">
<Points>
<DataArray  type="Float64"  NumberOfComponents="3"  format="ascii">266913.131276 586512.314988 0  266738.13716 587762.325998 0  266363.132677 589012.328643 0  266175.641078 590169.601714 0  265666.575631 591040.7699119999 0  264875.64001 591687.766419 0  264900.636161 591845.049083 0  266088.14152 592012.3229499999 0  265561.959259 592661.17101 0  264288.136855 593037.368683 0  263865.194033 593999.8486949999 0  263850.641856 593236.729596 0  263625.634872 592756.525286 0  262689.574249 593299.848918 0  262475.636737 594003.0907310001 0  261934.554452 594340.929792 0  261725.631329 594932.094409 0  261729.256443 595728.498809 0  262138.136044 595012.330523 0  262288.141035 596262.333669 0  261488.994028 597511.480605 0  261234.15567 598316.338928 0  260815.635063 599014.863821 0  261400.643658 599389.7367680001 0  261322.963374 600022.185065 0  261119.455248 600931.061306 0  261607.436504 601293.0629359999 0  260807.446929 602089.899812 0  260025.642878 602988.868697 0  259613.135827 603937.3854499999 0  259050.643123 604100.987861 0  258411.880065 603988.6335979999 0  257764.357469 604449.872569 0  257971.239668 605320.429125 0  258041.396867 605740.635381 0  257188.143339 606987.394312 0  256038.141198 608112.3554550001 0  254788.141633 609087.4026939999 0  253588.140656 609812.362881 0  252338.135706 609737.4048949999 0  251088.138116 609787.404055 0  249963.12851 610287.399466 0  248613.130524 610462.365857 0  247363.132198 610687.407659 0  246113.130532 610837.411551 0  245832.347438 610918.209918 0  245016.946433 610958.5639439999 0  244313.129646 610762.372259 0  244400.622144 611378.093316 0  243939.669208 612460.8930899999 0  242960.649733 611984.892792 0  242170.381438 611919.647351 0  241888.122919 611112.375656 0  241393.380757 610467.6456149999 0  240594.157528 611306.369822 0  240525.621947 610804.648112 0  240363.123632 610512.3745050001 0  239113.123247 610262.374278 0  239813.12126 609037.412459 0  240588.122952 607812.368199 0  241013.119545 606625.9534560001 0  241454.373249 605724.888025 0  242238.120107 604687.3993 0  243088.121248 603462.362766 0  242860.319451 603007.3932640001 0  241563.116617 603812.361344 0  241778.400913 604327.642217 0  242059.837234 604824.879102 0  241475.620201 604923.2402390001 0  241462.182234 605449.881372 0  240906.219606 605674.888222 0  240241.856192 606891.125066 0  239891.734044 607841.012479 0  239048.653431 608724.889805 0  238118.054545 608974.895967 0  238888.111029 607337.406468 0  239738.119992 606212.362729 0  240288.12044 605687.4075229999 0  240380.212307 604729.521696 0  239347.309632 604603.204501 0  238888.112036 604387.408787 0  237913.11173 604687.401386 0  236784.172023 604499.882783 0  236883.408793 603717.08334 0  236154.933927 603595.565605 0  235688.103943 602912.369264 0  235763.108033 601662.366516 0  236363.110805 600412.35884 0  236738.107995 599162.356577 0  236525.607944 598482.2412899999 0  236138.109208 599362.357613 0  235725.063048 600325.4466510001 0  235091.948926 601408.5220979999 0  235188.10921 600312.366344 0  234375.602405 600833.9674270001 0  234663.109308 599912.358011 0  234138.105122 600062.365644 0  233955.307245 599029.561063 0  233338.103791 598387.401556 0  233988.09795 597862.356384 0  235138.101489 596637.3947750001 0  235563.1039 595387.392428 0  236513.103639 594212.356312 0  237163.10684 592987.3929869999 0  238313.103031 591862.3515540001 0  239513.107028 590812.3512640001 0  240638.102135 589787.387271 0  241463.109549 588587.378486 0  242294.489816 587443.735215 0  242913.101099 586512.341804 0  243544.066915 585474.859604 0  243040.448415 585184.975583 0  242438.10214 585337.38015 0  241313.102353 586562.339499 0  240538.107104 587787.382449 0  240114.641085 588588.939407 0  239388.100256 589437.382238 0  238188.104456 590512.346358 0  236938.100507 591362.349798 0  235813.10453 592537.396388 0  234864.502938 593178.7753880001 0  234463.097651 592862.357267 0  235113.0965 591662.3545979999 0  235713.101522 590412.346099 0  235777.688431 589976.7582779999 0  234943.583145 590706.265132 0  234462.482256 591490.2841159999 0  233801.497784 592112.940187 0  233388.099101 591787.394208 0  234013.093099 590437.393065 0  234776.217248 587148.7548100001 0  235163.093726 586562.3486189999 0  235313.098918 585483.229012 0  235250.59732 584662.298153 0  235588.093896 583337.379493 0  236329.432041 582199.858992 0  237188.096234 581462.3349939999 0  237463.088521 580212.335511 0  238350.592558 579057.652616 0  238591.415797 578574.847681 0  238313.094106 577612.328905 0  239229.696732 577695.769664 0  240195.161018 577513.008613 0  240614.996733 577149.8518770001 0  240663.091715 577412.332622 0  240288.092486 578662.334085 0  239942.357258 579508.095811 0  240438.100019 580212.3334220001 0  241338.095553 580387.375355 0  241238.099828 579137.369157 0  241788.097003 577887.370889 0  241983.554649 577241.9220939999 0  242054.178239 576927.8105029999 0  242588.100699 575737.366175 0  243149.324833 574898.583978 0  243695.278626 573919.517981 0  244268.494418 573724.8454239999 0  244995.134063 573930.2767810001 0  245417.314363 573391.601898 0  243450.599125 571859.479773 0  245776.797908 572599.8353060001 0  246779.639852 572973.285167 0  248034.741935 573186.082054 0  249413.10651 573162.3205520001 0  250496.922226 573271.1521899999 0  251613.105126 573237.3551319999 0  252421.824577 572846.032906 0  253256.245022 572580.4733130001 0  253739.471933 571960.9547369999 0  254174.511864 572149.8346569999 0  254484.944333 571684.194807 0  254384.108649 570891.346712 0  254344.002752 570218.26407 0  255025.609604 570829.0294979999 0  255715.005913 570489.264586 0  256218.846343 570774.828355 0  256834.349083 570508.5908 0  257390.092515 570014.308325 0  257624.431042 568493.478911 0  259355.811717 569380.021819 0  260033.372814 569617.066669 0  262679.741751 570320.699974 0  263289.115756 569524.817815 0  263463.114338 570512.301061 0  264638.198419 570687.3443539999 0  265058.220065 571334.378467 0  265447.561421 572077.90485 0  265488.125257 573137.3446020001 0  265131.937715 573963.293593 0  265432.389648 575093.068786 0  265638.122314 576338.029955 0  265750.630817 577371.8281319999 0  265738.570663 578561.9098850001 0  265875.630866 579139.630549 0  266213.129247 579862.311842 0  266563.130472 581112.314509 0  266238.135356 582362.310259 0  265938.12863 583612.320897 0  265738.131342 584762.3210189999 0  266875.638633 585365.358768 0  264018.7239399826 593650.4646671159 0  262236.3944351029 595831.1252656333 0  241846.246678 605206.1436625 0  240200.622106 608424.8903290001 0  240943.4862974102 610939.7757535663 0  236550.6094 599787.3577085 0  238528.1212051503 608102.9081793013 0  244413.4891967989 572609.5960859474 0  236382.0474488751 598808.3067022427 0  235369.601910944 600933.5380148316 0  235413.099011 591037.3503485 0  235446.2251831186 590266.6553871984 0  240475.5921005 578037.3333535 0  240413.173949154 577324.4280286073 0  240574.037899 606283.0066440001 0  263857.9179445 593618.2891454998 0  264153.4303974913 593343.916675058 0  242042.1833925 604946.7714812499 0  241650.3099635 605465.51584375 0  244613.6985165 572229.6575395 0  236631.8579695 598822.2989335 0  235140.029068 600860.444221 0  241767.7287175 604874.0596705 0  242140.15174975 604817.0853906251 0  234781.8558075 600573.1668855001 0  242091.167571125 604881.9284359375 0  234519.3558565 600373.162719 0  254604.8337712102 583989.0014118921 0  250699.5846056537 594617.3297041012 0  250540.4796469513 602258.2940568649 0  248483.7490186612 580334.7345534252 0  258549.2190328319 577893.951823392 0  257067.0067473103 590016.5327808241 0  243285.0921999099 596333.923437875 0  248333.1386145258 589098.0389905117 0  256142.8445072741 595883.3911551933 0  260245.1368072523 583315.2785712298 0  253472.3380211276 578932.2908163272 0  246432.3347504817 599884.5019511909 0  261555.9240922556 588041.186709004 0  247293.1100123104 605823.8307887657 0  246458.2798550911 593168.8646574575 0  252840.0183145193 588226.5564648228 0  249828.2874404451 584740.7888937403 0  255409.5660975206 600458.8956828594 0  260819.9733392385 574219.403683011 0  252584.2262054711 605722.6603825617 0  254049.8830611471 592547.4852571967 0  250015.4356193061 598425.2225922942 0  245872.072249477 577604.9761853142 0  262002.1583249522 579753.4663046852 0  257732.6630933878 586227.970805314 0  250242.5556457866 577017.3316409125 0  244921.6453001869 581816.6358421432 0  256520.3890639471 580904.824006648 0  240779.0970645865 599524.6679555867 0  257100.1829219198 574459.5922545703 0  239912.2630002034 595231.1172704464 0  244703.0875078634 590068.6945953515 0  242549.5490268674 592874.3693043783 0  251586.0465921376 581796.2215047925 0  246643.189997516 596527.447801719 0  251049.7658069622 591057.6752245198 0  253014.5731561695 596998.6601086652 0  238680.2197353724 584542.2309791476 0  259715.365803504 591937.1938619445 0  254097.157218761 575731.4494927844 0  246806.6408589328 586139.0877599345 0  246136.1179750556 602959.471719323 0  253520.7033332401 602835.180253843 0  244125.4295793909 607538.9817227355 0  252546.8895354472 599881.3279113505 0  258289.0983523553 600397.640191779 0  247518.7952199645 583037.3718217331 0  263140.3959879661 582529.2228421422 0  262894.8586894067 585442.3590432997 0  256968.6320599076 593040.7691844478 0  243573.0187527719 600218.2795730785 0  258888.5766127351 595139.7745218446 0  262588.7569809347 576734.8569237856 0  259318.4257992262 580601.2540325444 0  249963.3812725965 607065.7205847671 0  257494.5307999607 583482.5893534871 0  258906.4757205145 572278.8089438241 0  237751.446593475 587300.5805003279 0  255142.4708720699 604956.7580261135 0  258485.4978753244 597756.9250383095 0  255516.7820591553 587791.39641967 0  239758.4692108706 601926.8203218657 0  255873.0092222999 577739.5085867504
[...]
<PointData  Scalars="f_32-1"> 
<DataArray  type="Float64"  Name="f_32-1"  format="ascii">4.0458600324264651e+01  4.1809777909860976e+01  4.3851862188939528e+01  4.5862090750517964e+01  4.7335484486171978e+01  4.9234550714317919e+01  4.9867007580459358e+01  4.9897673229578331e+01  5.0206773931676544e+01  5.1596898312277617e+01  5.2581752357396169e+01  5.2054652601712789e+01  5.1723532085025319e+01  5.3813312454515604e+01  5.5067590980595696e+01  5.6157386928060468e+01  5.7465334720410546e+01  5.8672763448516228e+01  5.8148151477207250e+01  5.9059885710496118e+01  6.1657869092145837e+01  6.3350907731892129e+01  6.5171282255566354e+01  6.6023768968401470e+01  6.6624746799407404e+01  6.8151275956978296e+01  6.8536826933717393e+01  6.9494510197793005e+01  7.1065828783303104e+01  7.1948252874442673e+01  7.2114628833915745e+01  7.2405386124148990e+01  7.3246022119521641e+01  7.4022903308541970e+01  7.4185767565878209e+01  7.5152793370202176e+01  7.6481679404130873e+01  7.7895536830428298e+01  7.9033757156433552e+01  7.9814512919536810e+01  8.0988404252586832e+01  8.2124066562733574e+01  8.3115548221095523e+01  8.3963144048537032e+01  8.4718079351508862e+01  8.4867729177274043e+01  8.5222446106974445e+01  8.5677325920054002e+01  8.6105377552084647e+01  8.6377743729681171e+01  8.6483023691050661e+01  8.6577343799005305e+01  8.6503807151971557e+01  8.6539726506046378e+01  8.6873754569201324e+01  8.6834309675072660e+01  8.6820105417193560e+01  8.6976733725749568e+01  8.6577458189989017e+01  8.5783142498693650e+01  8.4987767466748650e+01  8.4269559073219696e+01  8.3222125687528589e+01  8.1579458398039449e+01  8.1298352935321105e+01  8.3287370539050244e+01  8.3814039927150290e+01  8.3920593172405617e+01  8.4136880638811405e+01  8.4410101695792861e+01  8.4727378047087129e+01  8.5741891240893025e+01  8.6208261628503408e+01  8.6632619379307343e+01  8.6761509512084388e+01  8.6261170558970690e+01  8.5576406901957725e+01  8.5014354430969291e+01  8.4409747789646474e+01  8.4830761072996921e+01  8.5146588793678603e+01  8.5591676918522609e+01  8.5740087443916494e+01  8.5717136603680203e+01  8.5800901850320031e+01  8.5787905282301750e+01  8.5470707731170336e+01  8.4586372832466793e+01  8.3226562587294396e+01  8.3079370436667872e+01  8.4503695549514802e+01  8.5214888930403987e+01  8.5467823870985626e+01  8.5312087576665832e+01  8.5509621336926998e+01  8.5322871309380787e+01  8.5369088172905180e+01  8.5183788885961803e+01  8.5115662637446079e+01  8.4787138859369392e+01  8.2514269742852221e+01  8.0071574874852558e+01  7.6729876850904944e+01  7.3558043942240431e+01  7.0422614748412926e+01  6.8199349873116560e+01  6.6669957775470081e+01  6.5278715786455550e+01  6.3821654975711994e+01  6.2468597526730285e+01  6.0947250778915823e+01  6.0820023705655686e+01  6.1566531563843895e+01  6.3767936691079221e+01  6.5341665064599070e+01  6.6090536134713503e+01  6.6961471006960920e+01  6.8558629641929741e+01  7.0968018071434955e+01  7.4592022881274232e+01  7.6072798260156674e+01  7.6095590077333469e+01  7.4026457212034742e+01  7.1062707313904198e+01  7.0621232331824785e+01  7.3134702591078550e+01  7.5116637994502199e+01  7.6007235738189408e+01  7.6039943549432238e+01  7.3681195481538126e+01  6.8617259016279306e+01  6.7917152809675528e+01  6.6953497452537178e+01  6.6451882710597999e+01  6.5512928669021917e+01  6.4251282080378246e+01  6.2884810189248469e+01  6.1632116759926063e+01  6.0354535754419530e+01  5.9780732002168648e+01  5.9465487747084367e+01  5.9194933676998559e+01  5.8498531106394793e+01  5.8294536357391870e+01  5.8319083189040967e+01  5.9078476758504429e+01  5.9873107774306931e+01  6.0023384604590255e+01  5.9141484243030867e+01  5.8094967500612135e+01  5.6895256170236941e+01  5.6198793730962365e+01  5.5883351317364585e+01  5.4349178795248392e+01  5.2862508462017892e+01  5.1329076014673419e+01  5.0861954038835826e+01  4.9783419717914285e+01  4.8361985168441358e+01  4.8892785061031923e+01  4.7844407784094187e+01  4.6862501164700085e+01  4.5155910439864194e+01  4.3111728497357866e+01  4.1774528278456160e+01  4.0326857628041431e+01  3.9068237945469861e+01  3.7803938482043087e+01  3.7018741506563714e+01  3.6578651433388245e+01  3.5533365096033187e+01  3.4773524928909218e+01  3.4614941864565878e+01  3.4505388906032685e+01  3.3776654466120114e+01  3.3331904338549315e+01  3.2354948015220245e+01  3.3635151662635970e+01  5.3354577115621609e+01  4.0892554601991961e+01  3.5197650376819688e+01  3.2583188302659259e+01  3.2061974293686099e+01  3.3397568508228986e+01  3.2020732020171302e+01  3.1246434360100611e+01  3.1030593085256669e+01  3.1426018792051565e+01  3.2045919085954694e+01  3.2768233378493413e+01  3.3554108326959224e+01  3.4495206196045260e+01  3.5751362319052362e+01  3.6037042249426349e+01  3.6216462627247502e+01  3.7464752908112779e+01  3.9843822923345250e+01  4.0727643317866359e+01  3.9859783046123638e+01  3.9815897011236650e+01  5.2446060347863671e+01  5.8679742006715585e+01  8.3776645491631015e+01  8.6212372440436951e+01  8.6822437486759014e+01  8.3935248313506747e+01  8.6590769034522211e+01  4.8550352004999539e+01  8.3800609553039990e+01  8.5416548833873890e+01  7.2478309857416590e+01  7.1573633093060280e+01  5.8617748884897992e+01  5.8337120072754466e+01  8.5308854591696317e+01  5.2446882035476612e+01  5.2132358007850492e+01  8.3506962284740325e+01  8.4035140469374852e+01  4.8548412422651992e+01  8.2933983708880902e+01  8.5415965517956096e+01  8.3961635442615574e+01  8.3367418000981971e+01  8.5455368384421348e+01  8.3437686387194944e+01  8.5455441072344215e+01  4.9332221591088107e+01  6.6636880701721125e+01  7.4798380406532814e+01  5.2096166319093420e+01  3.7621890072701298e+01  5.5007642736964144e+01  7.3808647045920409e+01  6.1160028296250019e+01  6.3449180637306796e+01  4.1654941165364747e+01  4.4706774837802314e+01  7.5537174860535401e+01  4.5823896708838774e+01  8.0650215704541907e+01  6.7386422220077336e+01  5.6566022542482521e+01  5.6183951656357820e+01  6.9508601053124224e+01  3.3439047643809978e+01  7.6646680040540005e+01  6.1193127107475796e+01  7.1616695632185483e+01  5.1996743420618721e+01  3.7392005198798323e+01  4.8316924187701176e+01  4.5325466899723175e+01  5.7325755451142207e+01  4.3002884298166549e+01  7.9761265839755154e+01  3.6351399284263131e+01  7.4211198513208274e+01  6.5816236387892971e+01  6.8713041470333025e+01  4.9966223033020746e+01  7.1613778527687884e+01  6.1971437374192689e+01  6.7892061362887830e+01  6.4206045868011174e+01  5.5155342867646631e+01  3.9127425958053102e+01  5.9047665778401097e+01  7.8725233774774267e+01  7.3473222382712237e+01  8.4175554034112636e+01  7.1072975186142557e+01  6.8632827467269863e+01  5.5518930689668174e+01  3.9303658517910264e+01  4.0764940063703712e+01  5.9423971941479216e+01  7.7774098761561376e+01  5.9856962711535111e+01  3.4785851925964991e+01  3.9588374085579190e+01  7.9879373159594749e+01  4.4984819366569099e+01  3.1077205870811337e+01  6.6641938462511462e+01  7.4580722259311898e+01  6.4208951894950843e+01  5.3033595598074967e+01  8.4499309519958402e+01  3.9638015437196138e+01  4.9929964400573617e+01  6.0001743907721433e+01  6.5098222186399198e+01  5.5944216649429997e+01  4.6769560245635752e+01  4.2905053090883399e+01  5.7656856235807126e+01  4.7956317786636134e+01  4.7487046583222330e+01  4.3872532484543356e+01  4.9774575848071102e+01  8.3218989881197047e+01  7.7174511036072673e+01  5.2374361707190360e+01  8.1831749176662214e+01  7.4570769518117615e+01  7.5007913312933326e+01  7.9176958421206407e+01  6.1870585883306852e+01  5.8222970434618624e+01  6.7048543610365201e+01  7.1308037868258381e+01  5.7631298593735210e+01  7.7321823589078321e+01  5.2676881119276381e+01  6.4701486832190085e+01  3.1888980843903813e+01  5.0497493241353652e+01  6.8406380248073731e+01  7.5981415479895105e+01  6.5528920912191850e+01  6.9667977141106491e+01  6.2092060250645105e+01  7.0032084995698284e+01  3.6134339045050297e+01  5.4694170687182378e+01  5.2559607929877458e+01  7.8522780209307669e+01  6.8011266713305488e+01  3.7489279243804155e+01  7.8018140142460453e+01  6.3081933451363781e+01  8.3288095263292647e+01  3.2935294064650058e+01  8.3431401394221609e+01  8.3379968619109619e+01  5.4711668299025455e+01  5.0242614742138130e+01  8.3465857016624298e+01  8.4500470114412465e+01  8.1655248384046104e+01  8.4062644416693189e+01  7.0661654482588716e+01  3.5728826049318769e+01  7.9582224467689372e+01  7.4547040921326001e+01  5.5584455687723796e+01  4.9829930937156625e+01  4.6286038490723399e+01  8.4156224740473448e+01  8.3401291186075767e+01  5.7418274635606991e+01  8.4664763763224613e+01  8.2500331969627027e+01  8.2941694750536897e+01  8.4731617070573407e+01  5.9481932709432350e+01  4.8355279676316592e+01  6.9908912902120917e+01  3.3751386334544783e+01  4.8119896210186610e+01  3.7120589669921053e+01  6.8024674344106074e+01  8.5935977879109558e+01  6.5745026954163308e+01  7.1991210675208606e+01  8.2265025267637043e+01  6.0555480050475587e+01  3.0027588236918824e+01  7.1074262943738816e+01  3.9383761810170910e+01  5.1517637497454224e+01  8.3761415107160317e+01  8.1831175000785223e+01  6.0974906807688548e+01  8.5946773898303377e+01  4.3816747729038227e+01  8.4332396327465972e+01  6.2785489532973749e+01  3.2025719868376321e+01  3.5887454014550542e+01  3.7015981238205384e+01  7.1635647178573649e+01  8.0629579472271885e+01  7.9800669172459891e+01  6.7617440232489315e+01  8.3901872475080808e+01  5.8924572651600350e+01  4.8259256939803755e+01  4.8236347933098713e+01  3.1856657017592244e+01  8.3471962619418065e+01  8.3643179904654787e+01  8.3706942324346414e+01  7.4263609721415335e+01  8.0325884750056986e+01  8.3857212845263064e+01  8.2308162275883191e+01  6.5935949150507156e+01  8.6728722488227220e+01  8.6621547175021959e+01  6.0494048906315101e+01  3.4943012838003078e+01  5.9956093808822637e+01  8.0802933690621714e+01  5.5074697302111780e+01  6.3743063716551276e+01  8.6212727021242031e+01  6.2052816068168916e+01  7.2273276225214133e+01  4.0401186775462328e+01  5.5905350398892352e+01  5.5161978608662665e+01  5.6463309492379096e+01  8.4789578250063244e+01  4.9667033275934557e+01  5.0705154327512666e+01  4.8619462297158215e+01  5.0550806750653010e+01  4.6655157804214269e+01  3.2571312442383139e+01  3.0562218656405108e+01  5.1408053673937992e+01  5.4422430692507469e+01  7.5569730101501293e+01  7.5438463606956915e+01  8.6429198163992837e+01  6.6050931295235543e+01  6.4206889642417693e+01  6.0110930207635718e+01  5.9738542970607824e+01  6.0214234435492685e+01  6.1131206414894976e+01  6.0263566853794600e+01  6.0773500323062343e+01  6.2687103954331924e+01  6.1042616047206295e+01  6.1717823507705468e+01  6.3856331275948250e+01  6.2747451507513965e+01  5.8080158675028819e+01  5.9615260923389890e+01  4.4096140078823545e+01  4.6012911343409279e+01  4.4231678904785610e+01  4.2440153031943247e+01  4.3227549671026388e+01  4.1097751284235969e+01  4.2570000544954070e+01  4.1897123410791387e+01  3.8586569939699473e+01  3.7386113314436876e+01  3.3524616041071368e+01  3.3986211747198858e+01  3.4047809537961371e+01  3.5175952229630383e+01  3.4631601680689307e+01  3.5938290308479054e+01  3.6301893521072707e+01  3.5435676230195035e+01  3.6110432306185743e+01  3.6381583442230031e+01  3.6835945404432806e+01  3.6367279783887220e+01  3.7365785720424029e+01  4.0577935282051747e+01  3.8642638899818429e+01  4.9245928017240630e+01  4.6186324641223656e+01  4.7239313043881545e+01  5.1148943918032153e+01  6.9473007071520669e+01  6.7365137376782826e+01  6.5828696014833312e+01  6.7625994018286690e+01  7.3008518152236917e+01  7.5986275989480262e+01  7.4761729659336069e+01  7.6052814631626134e+01  5.4594581763268238e+01  4.9922609930341103e+01  5.1538629745480087e+01  5.4021565967997589e+01  3.7691448427700145e+01  3.9311761411890828e+01  3.7077233323795923e+01  3.8277782131668644e+01  3.7880905440605773e+01  3.7386055179864059e+01  5.4908016680183387e+01  5.8009674966604955e+01  5.3861734755181566e+01  5.6310731922779738e+01  5.2375082625717084e+01  7.4449256026411575e+01  7.1889072753132439e+01  6.1757328780368709e+01  6.0041667253559623e+01  6.3257537481003396e+01  5.9418289656946406e+01  6.2939297332694274e+01  6.1583057976767790e+01  6.2506936612769771e+01  6.5752046667794303e+01  6.4150818093301609e+01  3.9154018140057531e+01  3.9918417737984285e+01  4.1114205473518446e+01  4.0793480954161055e+01  4.4216710048915708e+01  4.3727325373819959e+01  4.7700443412812724e+01  4.1434593796749915e+01  4.1979039053479084e+01  4.5827681508858575e+01  4.6651180891165076e+01  7.3796363645926164e+01  7.7193098206458956e+01  7.5601802845049988e+01  7.7404284437223311e+01  7.9713310417678443e+01  6.9213050031073848e+01  6.6789812015188630e+01  6.8361345052883777e+01  6.7949115451567693e+01  5.4823696300078367e+01  5.7543749413829801e+01  5.6927603985054994e+01  5.4332009762748378e+01  7.1608884686124455e+01  6.9847183237559776e+01  6.9072094146820518e+01  6.8012017666542889e+01  3.4860058812250621e+01  3.3517915126429621e+01  6.1258473943825265e+01  6.0753971206536953e+01  5.9457386181527660e+01  7.1511761565912735e+01  6.9939006337113057e+01  7.3220747042757964e+01  7.0317498354748196e+01  5.4010363115699285e+01  4.9983184895368872e+01  5.1124379063868879e+01  5.2580124184697610e+01  5.0287567558229540e+01  5.1914953734979299e+01  3.7991181071836621e+01  3.6640361615737881e+01  3.8363846354067249e+01  3.6856639448458218e+01  3.7400815606572159e+01  3.7495435515821164e+01  4.6658890013410691e+01  5.0917721083992184e+01  4.8965991943722145e+01  5.1161952185396167e+01  4.1644642512841820e+01  4.6562230303872234e+01  4.6366320143830649e+01  4.7823173703855140e+01  4.2143882034170545e+01  4.4511115003074131e+01  5.7873519985245238e+01  5.8525855495128617e+01  5.6314539567859271e+01  5.7294313018641994e+01  4.1054819260522102e+01  4.4041495184218597e+01  4.1042076894766680e+01  4.4954148593624318e+01  3.7984930953238766e+01  3.4424160847987729e+01  3.8027326246048965e+01  3.6199958150873805e+01  3.6030812697006361e+01  3.5135735256533451e+01  3.6899494966450952e+01  6.6475414015710513e+01  6.3534677050461319e+01  6.7609020478206403e+01  6.5788864244334320e+01  6.9344447689339944e+01  4.8447556679909866e+01  4.9037174741523671e+01  6.9839247509994919e+01  6.3714801317863170e+01  5.9991277849976981e+01  5.9695399104188560e+01  6.2447738992431745e+01  6.9569947752073318e+01  6.7462920922570120e+01  6.3069624117067242e+01  6.3165017690579056e+01  5.7100404259927302e+01  5.2322717318113014e+01  4.0227085248918570e+01  3.8736323473648390e+01  3.7716228317795029e+01  5.8380391937698846e+01  6.0600321277847534e+01  7.6863739863271590e+01  7.8020239134286655e+01  7.2217329820539831e+01  7.5267248376349798e+01  7.2298604719599567e+01  7.2854383038772369e+01  6.8795160871154081e+01  6.7398776904551966e+01  5.8054743310743682e+01  3.8361372293468598e+01  5.9164973490872534e+01  5.8114194961766515e+01  3.5020279419911326e+01  3.6622808458699566e+01  3.4977971381537465e+01  4.2263021842236590e+01  4.4534318870695635e+01  5.5227224831293654e+01  5.1706548060231711e+01  5.2878338003687134e+01  4.9828977708118281e+01  5.9679529290446986e+01  6.0248749058674910e+01  6.0275292777550838e+01  6.0969313580624366e+01  6.4819318324778365e+01  6.4270584380235064e+01  5.4770996106873945e+01  4.9545801374334069e+01  4.9070655666893401e+01  5.0301180929646996e+01  4.8754034269482524e+01  4.5577053728953913e+01  4.6688808371237478e+01  5.5443975772116431e+01  5.2463737960738520e+01  7.6110557373218143e+01  5.5096945701353718e+01  5.2167689215339578e+01  6.3513304758710397e+01  6.8010580319674517e+01  6.8309294305129939e+01  6.6934463392992853e+01  3.7316254706641843e+01  3.3726232061836768e+01  3.6520318651628244e+01  6.0026273535810958e+01  3.6449406424645737e+01  6.1228059953439640e+01  4.1751912091427336e+01  3.7844717525645784e+01  6.1279404852631977e+01  5.0315106309754292e+01  6.8619062005290445e+01  3.7738927933267128e+01  3.8096861942073829e+01  3.7334725621122963e+01  3.7646253002993589e+01  3.7187926367135397e+01  6.2271599751973582e+01  4.4630519929780334e+01  4.6568056564117271e+01  4.5905939185451622e+01  7.6437933224295264e+01  5.9527625275893897e+01  5.5737978101750954e+01  5.5379349089736500e+01  5.5619583655196024e+01  3.4780597642409077e+01  7.0606193575489698e+01  7.1018319893773977e+01  3.8128396504970468e+01  3.7634325598532342e+01  4.8863582909802879e+01  4.9833863501230908e+01  4.3355883272555729e+01  5.8450516556829996e+01  6.2006694358369337e+01  6.2930134250773207e+01  6.0935215103456422e+01  6.3152836710051808e+01  4.0169849851750151e+01  3.8591381049271163e+01  3.8763925022370948e+01  3.8379726479081640e+01  6.9934401566104981e+01  3.8921548113720419e+01  4.0254962307988777e+01  4.0900430113222875e+01  5.3403688140984578e+01  5.3909572262947115e+01  5.4086636228165247e+01  5.2380191011896493e+01  4.0912128922667264e+01  3.8705394673671840e+01  4.0073065354310550e+01  5.0790502825436860e+01  7.4529789915889197e+01  7.5407301261782933e+01  7.6075794019643254e+01  6.2053107944920384e+01  6.7859870103642550e+01  5.3821736204195986e+01  5.1153631366476510e+01  4.9919085628262017e+01  5.1597230598972665e+01  6.7012821767744157e+01  6.1816878697139757e+01  6.2605066739002709e+01  3.7196399747751649e+01  3.6919975270572792e+01  3.6258805927933636e+01  5.3246864591386398e+01  5.6368888046516567e+01  5.7171474942270393e+01  5.3045737929762090e+01  6.8208072747931581e+01  3.6477557739272662e+01  3.7202886920206808e+01  3.6958137606562097e+01  6.1111272814570214e+01  6.0723000009480749e+01  6.0872614040270591e+01  4.3028094375809850e+01  4.4146395723566954e+01  4.4667346240972094e+01  3.7359145272872055e+01  3.5254841689444739e+01  3.5821912826549166e+01  6.1854937385914702e+01  6.2927645855956825e+01  6.2357217226254967e+01  6.1495347859175723e+01  6.1626587170564584e+01  6.1656374747096464e+01  6.1460786966163418e+01  4.4850520659025172e+01  3.5947751277683082e+01  5.0274909551305214e+01  6.9925955505114871e+01  5.2484001324721135e+01  5.2048516710061641e+01  3.7558216546889533e+01  3.8499412881230867e+01  3.8404890988293417e+01  3.9423987680601371e+01  3.9114429869674986e+01  3.7845241851280676e+01  5.3230004742533779e+01  5.2826403559461916e+01  5.2065070344922319e+01  6.2882754279842203e+01  6.2456527791701582e+01  3.8469949263629879e+01  3.8898049100238758e+01  4.2584526166376087e+01  4.2672024373636710e+01  4.7360459459150071e+01  4.1232102960675938e+01  4.1522647717067422e+01  4.1057948171823085e+01  4.7916881212616154e+01  7.6348616901933383e+01  5.5077733670090112e+01  5.6347855112322684e+01  5.4663442098808723e+01  6.8775069114064252e+01  6.9238374618851140e+01  6.8246937619134641e+01  5.1784815943803927e+01  5.3674835804339573e+01  5.2203954589242109e+01  4.5015165594769215e+01  5.8452383204757766e+01  5.5713968196262336e+01  3.9160774752485580e+01  3.7911679356002374e+01  6.7410804705739096e+01  6.7493083064112156e+01  6.8064359770079747e+01  3.8089236134965894e+01  3.6614037144168122e+01  </DataArray> 
</PointData> 
</Piece>
</UnstructuredGrid>
</VTKFile>