<?xml version="1.0"?>
<VTKFile type="UnstructuredGrid"  version="0.1"  >
<UnstructuredGrid>
<Piece  NumberOfPoints="784" NumberOfCells="1320">
<Points>
<DataArray  type="Float64"  NumberOfComponents="3"  format="ascii">266913.131276 586512.314988 0  266738.13716 587762.325998 0  266363.132677 589012.328643 0  266175.641078 590169.601714 0  265666.575631 591040.7699119999 0  264875.64001 591687.766419 0  264900.636161 591845.049083 0  266088.14152 592012.3229499999 0  265561.959259 592661.17101 0  264288.136855 593037.368683 0  263865.194033 593999.8486949999 0  263850.641856 593236.729596 0  263625.634872 592756.525286 0  262689.574249 593299.848918 0  262475.636737 594003.0907310001 0  261934.554452 594340.929792 0  261725.631329 594932.094409 0  261729.256443 595728.498809 0  262138.136044 595012.330523 0  262288.141035 596262.333669 0  261488.994028 597511.480605 0  261234.15567 598316.338928 0  260815.635063 599014.863821 0  261400.643658 599389.7367680001 0  261322.963374 600022.185065 0  261119.455248 600931.061306 0  261607.436504 601293.0629359999 0  260807.446929 602089.899812 0  260025.642878 602988.868697 0  259613.135827 603937.3854499999 0  259050.643123 604100.987861 0  258411.880065 603988.6335979999 0  257764.357469 604449.872569 0  257971.239668 605320.429125 0  258041.396867 605740.635381 0  257188.143339 606987.394312 0  256038.141198 608112.3554550001 0  254788.141633 609087.4026939999 0  253588.140656 609812.362881 0  252338.135706 609737.4048949999 0  251088.138116 609787.404055 0  249963.12851 610287.399466 0  248613.130524 610462.365857 0  247363.132198 610687.407659 0  246113.130532 610837.411551 0  245832.347438 610918.209918 0  245016.946433 610958.5639439999 0  244313.129646 610762.372259 0  244400.622144 611378.093316 0  243939.669208 612460.8930899999 0  242960.649733 611984.892792 0  242170.381438 611919.647351 0  241888.122919 611112.375656 0  241393.380757 610467.6456149999 0  240594.157528 611306.369822 0  240525.621947 610804.648112 0  240363.123632 610512.3745050001 0  239113.123247 610262.374278 0  239813.12126 609037.412459 0  240588.122952 607812.368199 0  241013.119545 606625.9534560001 0  241454.373249 605724.888025 0  242238.120107 604687.3993 0  243088.121248 603462.362766 0  242860.319451 603007.3932640001 0  241563.116617 603812.361344 0  241778.400913 604327.642217 0  242059.837234 604824.879102 0  241475.620201 604923.2402390001 0  241462.182234 605449.881372 0  240906.219606 605674.888222 0  240241.856192 606891.125066 0  239891.734044 607841.012479 0  239048.653431 608724.889805 0  238118.054545 608974.895967 0  238888.111029 607337.406468 0  239738.119992 606212.362729 0  240288.12044 605687.4075229999 0  240380.212307 604729.521696 0  239347.309632 604603.204501 0  238888.112036 604387.408787 0  237913.11173 604687.401386 0  236784.172023 604499.882783 0  236883.408793 603717.08334 0  236154.933927 603595.565605 0  235688.103943 602912.369264 0  235763.108033 601662.366516 0  236363.110805 600412.35884 0  236738.107995 599162.356577 0  236525.607944 598482.2412899999 0  236138.109208 599362.357613 0  235725.063048 600325.4466510001 0  235091.948926 601408.5220979999 0  235188.10921 600312.366344 0  234375.602405 600833.9674270001 0  234663.109308 599912.358011 0  234138.105122 600062.365644 0  233955.307245 599029.561063 0  233338.103791 598387.401556 0  233988.09795 597862.356384 0  235138.101489 596637.3947750001 0  235563.1039 595387.392428 0  236513.103639 594212.356312 0  237163.10684 592987.3929869999 0  238313.103031 591862.3515540001 0  239513.107028 590812.3512640001 0  240638.102135 589787.387271 0  241463.109549 588587.378486 0  242294.489816 587443.735215 0  242913.101099 586512.341804 0  243544.066915 585474.859604 0  243040.448415 585184.975583 0  242438.10214 585337.38015 0  241313.102353 586562.339499 0  240538.107104 587787.382449 0  240114.641085 588588.939407 0  239388.100256 589437.382238 0  238188.104456 590512.346358 0  236938.100507 591362.349798 0  235813.10453 592537.396388 0  234864.502938 593178.7753880001 0  234463.097651 592862.357267 0  235113.0965 591662.3545979999 0  235713.101522 590412.346099 0  235777.688431 589976.7582779999 0  234943.583145 590706.265132 0  234462.482256 591490.2841159999 0  233801.497784 592112.940187 0  233388.099101 591787.394208 0  234013.093099 590437.393065 0  234776.217248 587148.7548100001 0  235163.093726 586562.3486189999 0  235313.098918 585483.229012 0  235250.59732 584662.298153 0  235588.093896 583337.379493 0  236329.432041 582199.858992 0  237188.096234 581462.3349939999 0  237463.088521 580212.335511 0  238350.592558 579057.652616 0  238591.415797 578574.847681 0  238313.094106 577612.328905 0  239229.696732 577695.769664 0  240195.161018 577513.008613 0  240614.996733 577149.8518770001 0  240663.091715 577412.332622 0  240288.092486 578662.334085 0  239942.357258 579508.095811 0  240438.100019 580212.3334220001 0  241338.095553 580387.375355 0  241238.099828 579137.369157 0  241788.097003 577887.370889 0  241983.554649 577241.9220939999 0  242054.178239 576927.8105029999 0  242588.100699 575737.366175 0  243149.324833 574898.583978 0  243695.278626 573919.517981 0  244268.494418 573724.8454239999 0  244995.134063 573930.2767810001 0  245417.314363 573391.601898 0  243450.599125 571859.479773 0  245776.797908 572599.8353060001 0  246779.639852 572973.285167 0  248034.741935 573186.082054 0  249413.10651 573162.3205520001 0  250496.922226 573271.1521899999 0  251613.105126 573237.3551319999 0  252421.824577 572846.032906 0  253256.245022 572580.4733130001 0  253739.471933 571960.9547369999 0  254174.511864 572149.8346569999 0  254484.944333 571684.194807 0  254384.108649 570891.346712 0  254344.002752 570218.26407 0  255025.609604 570829.0294979999 0  255715.005913 570489.264586 0  256218.846343 570774.828355 0  256834.349083 570508.5908 0  257390.092515 570014.308325 0  257624.431042 568493.478911 0  259355.811717 569380.021819 0  260033.372814 569617.066669 0  262679.741751 570320.699974 0  263289.115756 569524.817815 0  263463.114338 570512.301061 0  264638.198419 570687.3443539999 0  265058.220065 571334.378467 0  265447.561421 572077.90485 0  265488.125257 573137.3446020001 0  265131.937715 573963.293593 0  265432.389648 575093.068786 0  265638.122314 576338.029955 0  265750.630817 577371.8281319999 0  265738.570663 578561.9098850001 0  265875.630866 579139.630549 0  266213.129247 579862.311842 0  266563.130472 581112.314509 0  266238.135356 582362.310259 0  265938.12863 583612.320897 0  265738.131342 584762.3210189999 0  266875.638633 585365.358768 0  264018.7239399826 593650.4646671159 0  262236.3944351029 595831.1252656333 0  241846.246678 605206.1436625 0  240200.622106 608424.8903290001 0  240943.4862974102 610939.7757535663 0  236550.6094 599787.3577085 0  238528.1212051503 608102.9081793013 0  244413.4891967989 572609.5960859474 0  236382.0474488751 598808.3067022427 0  235369.601910944 600933.5380148316 0  235413.099011 591037.3503485 0  235446.2251831186 590266.6553871984 0  240475.5921005 578037.3333535 0  240413.173949154 577324.4280286073 0  240574.037899 606283.0066440001 0  263857.9179445 593618.2891454998 0  264153.4303974913 593343.916675058 0  242042.1833925 604946.7714812499 0  241650.3099635 605465.51584375 0  244613.6985165 572229.6575395 0  236631.8579695 598822.2989335 0  235140.029068 600860.444221 0  241767.7287175 604874.0596705 0  242140.15174975 604817.0853906251 0  234781.8558075 600573.1668855001 0  242091.167571125 604881.9284359375 0  234519.3558565 600373.162719 0  254604.8337712102 583989.0014118921 0  250699.5846056537 594617.3297041012 0  250540.4796469513 602258.2940568649 0  248483.7490186612 580334.7345534252 0  258549.2190328319 577893.951823392 0  257067.0067473103 590016.5327808241 0  243285.0921999099 596333.923437875 0  248333.1386145258 589098.0389905117 0  256142.8445072741 595883.3911551933 0  260245.1368072523 583315.2785712298 0  253472.3380211276 578932.2908163272 0  246432.3347504817 599884.5019511909 0  261555.9240922556 588041.186709004 0  247293.1100123104 605823.8307887657 0  246458.2798550911 593168.8646574575 0  252840.0183145193 588226.5564648228 0  249828.2874404451 584740.7888937403 0  255409.5660975206 600458.8956828594 0  260819.9733392385 574219.403683011 0  252584.2262054711 605722.6603825617 0  254049.8830611471 592547.4852571967 0  250015.4356193061 598425.2225922942 0  245872.072249477 577604.9761853142 0  262002.1583249522 579753.4663046852 0  257732.6630933878 586227.970805314 0  250242.5556457866 577017.3316409125 0  244921.6453001869 581816.6358421432 0  256520.3890639471 580904.824006648 0  240779.0970645865 599524.6679555867 0  257100.1829219198 574459.5922545703 0  239912.2630002034 595231.1172704464 0  244703.0875078634 590068.6945953515 0  242549.5490268674 592874.3693043783 0  251586.0465921376 581796.2215047925 0  246643.189997516 596527.447801719 0  251049.7658069622 591057.6752245198 0  253014.5731561695 596998.6601086652 0  238680.2197353724 584542.2309791476 0  259715.365803504 591937.1938619445 0  254097.157218761 575731.4494927844 0  246806.6408589328 586139.0877599345 0  246136.1179750556 602959.471719323 0  253520.7033332401 602835.180253843 0  244125.4295793909 607538.9817227355 0  252546.8895354472 599881.3279113505 0  258289.0983523553 600397.640191779 0  247518.7952199645 583037.3718217331 0  263140.3959879661 582529.2228421422 0  262894.8586894067 585442.3590432997 0  256968.6320599076 593040.7691844478 0  243573.0187527719 600218.2795730785 0  258888.5766127351 595139.7745218446 0  262588.7569809347 576734.8569237856 0  259318.4257992262 580601.2540325444 0  249963.3812725965 607065.7205847671 0  257494.5307999607 583482.5893534871 0  258906.4757205145 572278.8089438241 0  237751.446593475 587300.5805003279 0  255142.4708720699 604956.7580261135 0  258485.4978753244 597756.9250383095 0  255516.7820591553 587791.39641967 0  239758.4692108706 601926.8203218657 0  255873.0092222999 577739.5085867504
[...]
<PointData  Scalars="f_32-1"> 
<DataArray  type="Float64"  Name="f_32-1"  format="ascii">4.1297120831305257e+01  4.2624848704975641e+01  4.4671843870686423e+01  4.6526422422962625e+01  4.7876782768110836e+01  4.9930337488857248e+01  5.0607658179624750e+01  5.1010241904115112e+01  5.1075721969349452e+01  5.1847114830294046e+01  5.2373756071905248e+01  5.2132882086961402e+01  5.2209911116817885e+01  5.4631878728961638e+01  5.6035667609551901e+01  5.7212810012596407e+01  5.8674730358407771e+01  6.0124153440531160e+01  6.0032716433823559e+01  6.0523623650140046e+01  6.2788327760942337e+01  6.4546368504688985e+01  6.6494219968488537e+01  6.7516043025104651e+01  6.8072218734335081e+01  6.9419484562074715e+01  6.9808130041240062e+01  7.0575655919904406e+01  7.1975807535198811e+01  7.2789336135243914e+01  7.2962872735839426e+01  7.3369173452523086e+01  7.4436036527010515e+01  7.5342624613098494e+01  7.5516282458599079e+01  7.6433800744273327e+01  7.7713703537764374e+01  7.9073850309944717e+01  8.0057213137770532e+01  8.0865797321368575e+01  8.2081080756941532e+01  8.3221900509669851e+01  8.4236109917983995e+01  8.5117543960587440e+01  8.5896771131307418e+01  8.6059538655766602e+01  8.6474967265480387e+01  8.7016841557491929e+01  8.7454692961092491e+01  8.7662498275782823e+01  8.7707417726277896e+01  8.7750158988782175e+01  8.7728603421274642e+01  8.7812907878658265e+01  8.8041163523302032e+01  8.8023000472331447e+01  8.8025944789088314e+01  8.8122706623292800e+01  8.7871107547828586e+01  8.7119260782214326e+01  8.6290065100711558e+01  8.5609538732529060e+01  8.4530027525566197e+01  8.2776350286981497e+01  8.2571486212747232e+01  8.4766906455911013e+01  8.5332388125240328e+01  8.5460918719280244e+01  8.5616788574858859e+01  8.5835507689974776e+01  8.6122505784063279e+01  8.7186985001147036e+01  8.7606746096374010e+01  8.7864954799528206e+01  8.7925625305877105e+01  8.7638314901549165e+01  8.7013394688958584e+01  8.6408311653633632e+01  8.5794391471731558e+01  8.6195421530873432e+01  8.6512896145736846e+01  8.6941694254754211e+01  8.7060344038738549e+01  8.7055910320860463e+01  8.7105540277477616e+01  8.7081393338064231e+01  8.6799536790785382e+01  8.5899393412312136e+01  8.4404743234497687e+01  8.4243474315725749e+01  8.5743937523550173e+01  8.6391954909880099e+01  8.6585228784403895e+01  8.6440884861953961e+01  8.6534181750180906e+01  8.6379793863796110e+01  8.6371341040048250e+01  8.6173705737387451e+01  8.6089723281125657e+01  8.5796992639038521e+01  8.3508192237257902e+01  8.1082294435735960e+01  7.7947076362117656e+01  7.4943002278307162e+01  7.2065293987704422e+01  6.9712275960010459e+01  6.7915004991614069e+01  6.6343065117775708e+01  6.4657167623537120e+01  6.3158459958574802e+01  6.1243098337930491e+01  6.0546869637419235e+01  6.0944694754018251e+01  6.3922149063324227e+01  6.6208637240589866e+01  6.7121539610164518e+01  6.8067088345959121e+01  6.9754861195518259e+01  7.2126857882025504e+01  7.5015705389783122e+01  7.5873680933614182e+01  7.5883328453088041e+01  7.4598015708994026e+01  7.2180853991265550e+01  7.1762824665189584e+01  7.3927857545058274e+01  7.5417091199861730e+01  7.5937607197582054e+01  7.5943426923086221e+01  7.4338694459915843e+01  6.9539235478239803e+01  6.8819836402938961e+01  6.7766611602617857e+01  6.7196252139071191e+01  6.6284872210855994e+01  6.5130062457396491e+01  6.3748956567013735e+01  6.2429224818429461e+01  6.1235650844206404e+01  6.0722068824901193e+01  6.0421326657036069e+01  6.0295559924433604e+01  5.9931294844242423e+01  5.9824953603544323e+01  5.9837652044154972e+01  6.0310287745270742e+01  6.0984822844422659e+01  6.1091640108958963e+01  5.9915287096018361e+01  5.8643685706184058e+01  5.7446791708567218e+01  5.6710158617970940e+01  5.6387866674957245e+01  5.4875182179550485e+01  5.3491586385760399e+01  5.2231926621481357e+01  5.1841064221252594e+01  5.0664620842793781e+01  4.9191620495801388e+01  4.9340641529094796e+01  4.8755388148289541e+01  4.7918379081790647e+01  4.6011393080642684e+01  4.3801103780765075e+01  4.2400755381357214e+01  4.0799653300890526e+01  3.9462622849703202e+01  3.8177449035403839e+01  3.7446975461407469e+01  3.6985674020852720e+01  3.5955108915032689e+01  3.5337168413689021e+01  3.5265439669445392e+01  3.5152872716106174e+01  3.4604684478364319e+01  3.4107652794526096e+01  3.3008269289463669e+01  3.2139992149893963e+01  3.2672275017405191e+01  3.1183244795026550e+01  3.1171085615452288e+01  3.3046500998331034e+01  3.3141036857987125e+01  3.3254928368049320e+01  3.2896157165949234e+01  3.2418027799669666e+01  3.2011107532814883e+01  3.2090441232553225e+01  3.2624967100356535e+01  3.3396563965761736e+01  3.4180411448001514e+01  3.4972253440305600e+01  3.5994280100452656e+01  3.6443804187389496e+01  3.6989409929325276e+01  3.8346319835435210e+01  4.0276476080776177e+01  4.1211001553983586e+01  4.0820224249608856e+01  4.0756066782681685e+01  5.2310921668579482e+01  6.0269374966324968e+01  8.5121405436510898e+01  8.7558008666849673e+01  8.8011905771878347e+01  8.5182948758072641e+01  8.7841310490657534e+01  4.9143738603301060e+01  8.5005013210224277e+01  8.6548227939843727e+01  7.3394563093655179e+01  7.2582513245529910e+01  6.0002386474848450e+01  5.9846946787232618e+01  8.6725569685587487e+01  5.2311109744275953e+01  5.2160582133626882e+01  8.4839031988676709e+01  8.5383384332486386e+01  4.9142940122015432e+01  8.4091392297517814e+01  8.6548293832177137e+01  8.5487851679408735e+01  8.4688836454860692e+01  8.6502350175548898e+01  8.4764962135436576e+01  8.6501776779283858e+01  4.9219472765906239e+01  6.6812349143820938e+01  7.5783310817024969e+01  5.1642093058413792e+01  3.6574653598728496e+01  5.3179977770127529e+01  7.5099773078094856e+01  6.1280726420951538e+01  6.4372539842554346e+01  4.2025610115392951e+01  4.3181914717154335e+01  7.5436028955546476e+01  4.6588452306915691e+01  8.2024282651898957e+01  6.7601646958993953e+01  5.4562513097358988e+01  5.6548249669338944e+01  6.8940046717215353e+01  3.3696487200614541e+01  7.7998570129120949e+01  6.1629290480460163e+01  7.0717387928303793e+01  5.2185485611787961e+01  3.6850361484818180e+01  4.7075680122721202e+01  4.5178827870026140e+01  5.7606657672621246e+01  4.2947145924843717e+01  8.1217781105556000e+01  3.6631167821989514e+01  7.5718891195861389e+01  6.4756176672363765e+01  6.9995528006873826e+01  5.0644079405952731e+01  7.2530828913391943e+01  6.0560986148629965e+01  6.7894937433605065e+01  6.4847356228108310e+01  5.5728807105736188e+01  3.8639588532867307e+01  5.9713210055954548e+01  7.9748413780010523e+01  7.4538576636818178e+01  8.5514688645618577e+01  7.1181589345574565e+01  6.9523684350201108e+01  5.6286491530801399e+01  3.9513343063171945e+01  4.1650557911284785e+01  5.9480174288610776e+01  7.9081670830604523e+01  6.0958478793781843e+01  3.5140908266594138e+01  3.9120919708595714e+01  8.1185922817510900e+01  4.5151556197883849e+01  3.2114439464856630e+01  6.7729220785003719e+01  7.5855933332430112e+01  6.5281273604519569e+01  4.9747402709825209e+01  8.5235171588728633e+01  3.8544228243768153e+01  5.0876400221795691e+01  5.9959535455967902e+01  6.5389530484167764e+01  5.6411086872619912e+01  4.7077648971282876e+01  4.3711786065807999e+01  5.6475204073578453e+01  4.8009093141872157e+01  4.7854626384996457e+01  4.4592699683673303e+01  4.9417633219348126e+01  8.4568038096466353e+01  7.8517136106758031e+01  5.2988180598110112e+01  8.3150369990077067e+01  7.5798763218743403e+01  7.3828826472071711e+01  8.0533840109256943e+01  6.2601180229360295e+01  5.9101923784249536e+01  6.6327869132613571e+01  7.2349521740031719e+01  5.7974540490428687e+01  7.8258281052430334e+01  5.0800111491930792e+01  6.5573189683188559e+01  3.2549901084030047e+01  4.9471517690087175e+01  6.8991528266931965e+01  7.7460664177901378e+01  6.3942152360324322e+01  7.0953808329066192e+01  6.2288588490086205e+01  7.1592139435725684e+01  3.5763557660642498e+01  5.3430662045076552e+01  5.3336886803280585e+01  7.9789574867219983e+01  6.7421060006539179e+01  3.7489105449239645e+01  7.9348307540758782e+01  6.3602865250196999e+01  8.4336999451879919e+01  3.3388800911928961e+01  8.4803789368965411e+01  8.4733840851942631e+01  5.5311326730757301e+01  5.0973217176609076e+01  8.4804899140714141e+01  8.5808191372089667e+01  8.2965228683272926e+01  8.5173517947931956e+01  7.1496660327299864e+01  3.6100943328996038e+01  8.0817094634376716e+01  7.5846958567355188e+01  5.6177332622801984e+01  5.0549344891693586e+01  4.7259443125622099e+01  8.5531232615617455e+01  8.4728453757945090e+01  5.8425342982338854e+01  8.5893533395899780e+01  8.3738627940060866e+01  8.4240158234710876e+01  8.5966079051677966e+01  5.9809120112382587e+01  4.9016030261939129e+01  7.1152458485946710e+01  3.4160597852896700e+01  4.9062451331441622e+01  3.6651264358147230e+01  6.9168316435056525e+01  8.7321830248112022e+01  6.6703128823736321e+01  7.2797049305774408e+01  8.3450782500307739e+01  6.0085418935738460e+01  3.0969105776622868e+01  7.2036198460193148e+01  3.9494393783427768e+01  5.2326528561950973e+01  8.4930620489555224e+01  8.2947805003194588e+01  6.2021134112607541e+01  8.7327369606577022e+01  4.3940963471370111e+01  8.5475539145429792e+01  6.3890355333125711e+01  3.2513408843050080e+01  3.6264953662150553e+01  3.7341844719754278e+01  7.2558315551993260e+01  8.1850311448860467e+01  8.1150750589598218e+01  6.8680070568994168e+01  8.5261342317643326e+01  5.9999109152183848e+01  4.8986416369084559e+01  4.8977006516975884e+01  3.2402097473710569e+01  8.4802737101532699e+01  8.4982593034305594e+01  8.5054142252161583e+01  7.5577887700224295e+01  8.1585016115981148e+01  8.5136865647176435e+01  8.3571755041419138e+01  6.6921641107367165e+01  8.7958154024768447e+01  8.7902347402669562e+01  6.1150159022503004e+01  3.5075201059976912e+01  6.0951338979066591e+01  8.2078849140211673e+01  5.5972907870047599e+01  6.4643521284958581e+01  8.7531405421950737e+01  6.1809801488867038e+01  7.3412297697321151e+01  4.0902854228567996e+01  5.6441218724018633e+01  5.5663661345439643e+01  5.7054443271482789e+01  8.5938157087575291e+01  5.0385038168592899e+01  5.1282567881353302e+01  4.9402773840445711e+01  5.1152102003298175e+01  4.7404227205778106e+01  3.2873332724497210e+01  3.1278158871626896e+01  5.2287166403555212e+01  5.5023296132424896e+01  7.5600838455679082e+01  7.5515945252805864e+01  8.7751472486123717e+01  6.6974720068199503e+01  6.4881589943318019e+01  6.0767856983452944e+01  6.0290388892665717e+01  6.0416222921010082e+01  6.0612416816064979e+01  6.0306320023803316e+01  6.0331374140385677e+01  6.2280261148045319e+01  6.0466813477421958e+01  6.1100679667691473e+01  6.4081152283215971e+01  6.2444365156267580e+01  5.8650850393842276e+01  6.0163749705214045e+01  4.4806271497949517e+01  4.6544439931848402e+01  4.4707179404431571e+01  4.3101847165870034e+01  4.3672106099130183e+01  4.1648070124127798e+01  4.2966600500419865e+01  4.2269739103583156e+01  3.8922030953684455e+01  3.7731717071566216e+01  3.4046969718652626e+01  3.4560236721974093e+01  3.4502521318841985e+01  3.5481841358268490e+01  3.4931743924431387e+01  3.6230999529251811e+01  3.6271310205199512e+01  3.5468301350858766e+01  3.6714895194065370e+01  3.6453650624408148e+01  3.7219684867244197e+01  3.6673073855423546e+01  3.7925103637102936e+01  4.0365556907982189e+01  3.8888995830168135e+01  4.7245116809570355e+01  4.6505477488050602e+01  4.6928719349041529e+01  5.0220869178751386e+01  6.7962513295375985e+01  6.7233797308077641e+01  6.6284847648926174e+01  6.7755922643708942e+01  7.3856934192117905e+01  7.7200234222233945e+01  7.4916860720268929e+01  7.6891612168766017e+01  5.4223954569335660e+01  4.9960002537100131e+01  5.0340627723298063e+01  5.2364633588279339e+01  3.6990216781171966e+01  3.8673890634452171e+01  3.6748662064180017e+01  3.7558132986289031e+01  3.7028373174673085e+01  3.6357299530197842e+01  5.4790132618150878e+01  5.6526087047036107e+01  5.1215507543839756e+01  5.4377609519619490e+01  5.1165138851163363e+01  7.5489710518336125e+01  7.2708572709010525e+01  6.0561396136546371e+01  6.0388045775169971e+01  6.2784749298326219e+01  5.9750636891863145e+01  6.2609069641633511e+01  6.1368177236935949e+01  6.3261530427288029e+01  6.6255905467723281e+01  6.5097797839988701e+01  3.8576233424463233e+01  4.0075922275622759e+01  4.1807590947586753e+01  4.0699612247620102e+01  4.3592663163638143e+01  4.2998837227282984e+01  4.7334129310701805e+01  4.0228291901346019e+01  4.0710283315285849e+01  4.5270051771585649e+01  4.5665892664416639e+01  7.2900930149920015e+01  7.7393609444004539e+01  7.4215575244648420e+01  7.8172420473153181e+01  8.0994331492861079e+01  7.0355355930544405e+01  6.5682328679250432e+01  6.9181426069904845e+01  6.7339041204975217e+01  5.1863865398212113e+01  5.5487352836725783e+01  5.6234929909442322e+01  5.2030172845103252e+01  7.1959889200996798e+01  6.9294393547733407e+01  6.9386141427526596e+01  6.6947209716812395e+01  3.5062936380636330e+01  3.4180668923471508e+01  6.1502432103990785e+01  6.0419053860597472e+01  5.9265851739391337e+01  7.1348614137394918e+01  6.9118782699772851e+01  7.2581239554346340e+01  6.9269596843688902e+01  5.4211866127904251e+01  5.0296543154377083e+01  5.0686681387486253e+01  5.2404924125021807e+01  5.0836753974914842e+01  5.2547708847483960e+01  3.7559922471314607e+01  3.6465819799222551e+01  3.7588019556560504e+01  3.6518684081675644e+01  3.7001797151551258e+01  3.6889965128423412e+01  4.6080435128823311e+01  4.8012921859161750e+01  4.7978630950702772e+01  4.8029137357118138e+01  4.1033814065258390e+01  4.6425378815948790e+01  4.6445713567143045e+01  4.7577617395084289e+01  4.1820615173558195e+01  4.4445297888489215e+01  5.7233371943184650e+01  5.8950897595100351e+01  5.6740432409638665e+01  5.5980709090497271e+01  4.0842964095062655e+01  4.4376208245704291e+01  4.0188134665112017e+01  4.5034828427923586e+01  3.7671370061767625e+01  3.4798779191473507e+01  3.7579020317375168e+01  3.6197560319921323e+01  3.6360828172396261e+01  3.5507862215017788e+01  3.7046637852604782e+01  6.4028392307937082e+01  6.3417449158681556e+01  6.5987727707791123e+01  6.6020369598098512e+01  7.0488292227929634e+01  4.8921616383189779e+01  4.9388811754778310e+01  7.0720337078567226e+01  6.2873134669895805e+01  5.9501414570998939e+01  5.8815181027462401e+01  6.2116405469329720e+01  6.9185439482591590e+01  6.7175368202117639e+01  6.3636325858457099e+01  6.3378884667038719e+01  5.7520252452650979e+01  5.2683293623553375e+01  3.8939927572764098e+01  3.8775702038769829e+01  3.7896468323478764e+01  5.9192085185448249e+01  6.0901523617563846e+01  7.6410947420996891e+01  7.8878507166163089e+01  7.2808128047575281e+01  7.6578804521803264e+01  7.3197010612796859e+01  7.3275647669129285e+01  6.7951678710444895e+01  6.7431638179740730e+01  5.5389814584082742e+01  3.8421105395780117e+01  5.7727415409162191e+01  5.8960343229615468e+01  3.5293898185967031e+01  3.6157696641646830e+01  3.5174541491201943e+01  4.2457990481071064e+01  4.4930260287629721e+01  5.2814220303371712e+01  4.9145185894838832e+01  4.9788040834432060e+01  5.0518774471120736e+01  5.9672029178303923e+01  5.9939678977569827e+01  6.0546097796210233e+01  6.0645308233083043e+01  6.4729626838822185e+01  6.4327004282067122e+01  5.4798489442432064e+01  5.0176987569058042e+01  4.8661572374064349e+01  5.0772040108408184e+01  4.8697267493254664e+01  4.5786022646926526e+01  4.7019404200772847e+01  5.5556310974049801e+01  5.2232646527657813e+01  7.5941369204602282e+01  5.4254887390074799e+01  5.1163857726130537e+01  6.2663425725763467e+01  6.5439362870824382e+01  6.9054816311241169e+01  6.7141832561050933e+01  3.7063309941594490e+01  3.4147024909304115e+01  3.6821336822951032e+01  5.9936324531429705e+01  3.5993611219948420e+01  6.0658438664627035e+01  4.1763516419436876e+01  3.8177843647700783e+01  6.1429261072737752e+01  4.8597931351883041e+01  6.7860030319110024e+01  3.6786483874946697e+01  3.7216864479162055e+01  3.6522500556288399e+01  3.6699193637790515e+01  3.6457591572404041e+01  6.1967469087952971e+01  4.3314160724446133e+01  4.5323925978187127e+01  4.4398951744677646e+01  7.5669343998962631e+01  5.8320276619703804e+01  5.3192146078981828e+01  5.3159201033836354e+01  5.4099885095069659e+01  3.4944110540336148e+01  6.9109624101970297e+01  6.9714991794970658e+01  3.7346303919094431e+01  3.7031844706140660e+01  4.6906032774206984e+01  4.7339788685754776e+01  4.2988559178523786e+01  5.6783735866705797e+01  6.0293867864856303e+01  6.1623383362662835e+01  5.9414433012074838e+01  6.2368476608597753e+01  3.9573534760309876e+01  3.8107414769904523e+01  3.8630680699173716e+01  3.8270930270988835e+01  6.9495383149377290e+01  3.8303719632477225e+01  3.9919120336564745e+01  4.0761211784364029e+01  5.0378334294367441e+01  5.0716120489801206e+01  5.1112040189157206e+01  4.9267867140754902e+01  3.9605221087530616e+01  3.7882150111537555e+01  3.8816372230003836e+01  4.9318737631266352e+01  7.3236792172505403e+01  7.3879843613031312e+01  7.4905316928147727e+01  6.2291105117047287e+01  6.6898011023493325e+01  5.2395219297923582e+01  4.9869639461821279e+01  4.9055172202816500e+01  5.0352439204935230e+01  6.4586929468519060e+01  6.1655092496770749e+01  6.2369456074184782e+01  3.6404747837439615e+01  3.6150734100997809e+01  3.5950666546878260e+01  5.2757221354823969e+01  5.4730090926989924e+01  5.4359953162584787e+01  5.2120672207741265e+01  6.6421698730824247e+01  3.6123135171718559e+01  3.6442554403390112e+01  3.6350463737318478e+01  6.0474334505586306e+01  6.0229094649289536e+01  6.0294507193978447e+01  4.2948138013781090e+01  4.4166748085778025e+01  4.4821210316444393e+01  3.7444446790565316e+01  3.5275249638078613e+01  3.5641055683736248e+01  6.1361470966254409e+01  6.2806088265509878e+01  6.1981288996669456e+01  6.1168150357284041e+01  6.1181994076400443e+01  6.1578606390646485e+01  6.0840341821869103e+01  4.5152545860211319e+01  3.5724494478367887e+01  4.7634653964941307e+01  6.8509300425373567e+01  5.1285120344488540e+01  5.0729688347235424e+01  3.6615483974414339e+01  3.7599533038208378e+01  3.7713333578239052e+01  3.8925496958018137e+01  3.8242029939822487e+01  3.7231620935189646e+01  5.1053645697724392e+01  5.0029224770220864e+01  5.0097552730309872e+01  6.1437744549453512e+01  6.1989092836044392e+01  3.7855697806828999e+01  3.8659836765162879e+01  4.1564344651272179e+01  4.2059970033241271e+01  4.6557297379616429e+01  4.0356028289721642e+01  4.0417874658325481e+01  3.9645827163453667e+01  4.7686128181299267e+01  7.5162570949432961e+01  5.2272744371400861e+01  5.4150136790937410e+01  5.3085994562586293e+01  6.7789305685470737e+01  6.8449572056743563e+01  6.7153165833426144e+01  5.1484728114992279e+01  5.3531743267835878e+01  5.1683820168777530e+01  4.5092670385605743e+01  5.5700543830556498e+01  5.5243081865103115e+01  3.8276777934297350e+01  3.7752092717383825e+01  6.4964933614896211e+01  6.4660602846994891e+01  6.5666827517613697e+01  3.8269352111778467e+01  3.6093358093445126e+01  </DataArray> 
</PointData> 
</Piece>
</UnstructuredGrid>
</VTKFile>