<?xml version="1.0"?>
<VTKFile type="UnstructuredGrid"  version="0.1"  >
<UnstructuredGrid>
<Piece  NumberOfPoints="784" NumberOfCells="1320">
<Points>
<DataArray  type="Float64"  NumberOfComponents="3"  format="ascii">266913.131276 586512.314988 0  266738.13716 587762.325998 0  266363.132677 589012.328643 0  266175.641078 590169.601714 0  265666.575631 591040.7699119999 0  264875.64001 591687.766419 0  264900.636161 591845.049083 0  266088.14152 592012.3229499999 0  265561.959259 592661.17101 0  264288.136855 593037.368683 0  263865.194033 593999.8486949999 0  263850.641856 593236.729596 0  263625.634872 592756.525286 0  262689.574249 593299.848918 0  262475.636737 594003.0907310001 0  261934.554452 594340.929792 0  261725.631329 594932.094409 0  261729.256443 595728.498809 0  262138.136044 595012.330523 0  262288.141035 596262.333669 0  261488.994028 597511.480605 0  261234.15567 598316.338928 0  260815.635063 599014.863821 0  261400.643658 599389.7367680001 0  261322.963374 600022.185065 0  261119.455248 600931.061306 0  261607.436504 601293.0629359999 0  260807.446929 602089.899812 0  260025.642878 602988.868697 0  259613.135827 603937.3854499999 0  259050.643123 604100.987861 0  258411.880065 603988.6335979999 0  257764.357469 604449.872569 0  257971.239668 605320.429125 0  258041.396867 605740.635381 0  257188.143339 606987.394312 0  256038.141198 608112.3554550001 0  254788.141633 609087.4026939999 0  253588.140656 609812.362881 0  252338.135706 609737.4048949999 0  251088.138116 609787.404055 0  249963.12851 610287.399466 0  248613.130524 610462.365857 0  247363.132198 610687.407659 0  246113.130532 610837.411551 0  245832.347438 610918.209918 0  245016.946433 610958.5639439999 0  244313.129646 610762.372259 0  244400.622144 611378.093316 0  243939.669208 612460.8930899999 0  242960.649733 611984.892792 0  242170.381438 611919.647351 0  241888.122919 611112.375656 0  241393.380757 610467.6456149999 0  240594.157528 611306.369822 0  240525.621947 610804.648112 0  240363.123632 610512.3745050001 0  239113.123247 610262.374278 0  239813.12126 609037.412459 0  240588.122952 607812.368199 0  241013.119545 606625.9534560001 0  241454.373249 605724.888025 0  242238.120107 604687.3993 0  243088.121248 603462.362766 0  242860.319451 603007.3932640001 0  241563.116617 603812.361344 0  241778.400913 604327.642217 0  242059.837234 604824.879102 0  241475.620201 604923.2402390001 0  241462.182234 605449.881372 0  240906.219606 605674.888222 0  240241.856192 606891.125066 0  239891.734044 607841.012479 0  239048.653431 608724.889805 0  238118.054545 608974.895967 0  238888.111029 607337.406468 0  239738.119992 606212.362729 0  240288.12044 605687.4075229999 0  240380.212307 604729.521696 0  239347.309632 604603.204501 0  238888.112036 604387.408787 0  237913.11173 604687.401386 0  236784.172023 604499.882783 0  236883.408793 603717.08334 0  236154.933927 603595.565605 0  235688.103943 602912.369264 0  235763.108033 601662.366516 0  236363.110805 600412.35884 0  236738.107995 599162.356577 0  236525.607944 598482.2412899999 0  236138.109208 599362.357613 0  235725.063048 600325.4466510001 0  235091.948926 601408.5220979999 0  235188.10921 600312.366344 0  234375.602405 600833.9674270001 0  234663.109308 599912.358011 0  234138.105122 600062.365644 0  233955.307245 599029.561063 0  233338.103791 598387.401556 0  233988.09795 597862.356384 0  235138.101489 596637.3947750001 0  235563.1039 595387.392428 0  236513.103639 594212.356312 0  237163.10684 592987.3929869999 0  238313.103031 591862.3515540001 0  239513.107028 590812.3512640001 0  240638.102135 589787.387271 0  241463.109549 588587.378486 0  242294.489816 587443.735215 0  242913.101099 586512.341804 0  243544.066915 585474.859604 0  243040.448415 585184.975583 0  242438.10214 585337.38015 0  241313.102353 586562.339499 0  240538.107104 587787.382449 0  240114.641085 588588.939407 0  239388.100256 589437.382238 0  238188.104456 590512.346358 0  236938.100507 591362.349798 0  235813.10453 592537.396388 0  234864.502938 593178.7753880001 0  234463.097651 592862.357267 0  235113.0965 591662.3545979999 0  235713.101522 590412.346099 0  235777.688431 589976.7582779999 0  234943.583145 590706.265132 0  234462.482256 591490.2841159999 0  233801.497784 592112.940187 0  233388.099101 591787.394208 0  234013.093099 590437.393065 0  234776.217248 587148.7548100001 0  235163.093726 586562.3486189999 0  235313.098918 585483.229012 0  235250.59732 584662.298153 0  235588.093896 583337.379493 0  236329.432041 582199.858992 0  237188.096234 581462.3349939999 0  237463.088521 580212.335511 0  238350.592558 579057.652616 0  238591.415797 578574.847681 0  238313.094106 577612.328905 0  239229.696732 577695.769664 0  240195.161018 577513.008613 0  240614.996733 577149.8518770001 0  240663.091715 577412.332622 0  240288.092486 578662.334085 0  239942.357258 579508.095811 0  240438.100019 580212.3334220001 0  241338.095553 580387.375355 0  241238.099828 579137.369157 0  241788.097003 577887.370889 0  241983.554649 577241.9220939999 0  242054.178239 576927.8105029999 0  242588.100699 575737.366175 0  243149.324833 574898.583978 0  243695.278626 573919.517981 0  244268.494418 573724.8454239999 0  244995.134063 573930.2767810001 0  245417.314363 573391.601898 0  243450.599125 571859.479773 0  245776.797908 572599.8353060001 0  246779.639852 572973.285167 0  248034.741935 573186.082054 0  249413.10651 573162.3205520001 0  250496.922226 573271.1521899999 0  251613.105126 573237.3551319999 0  252421.824577 572846.032906 0  253256.245022 572580.4733130001 0  253739.471933 571960.9547369999 0  254174.511864 572149.8346569999 0  254484.944333 571684.194807 0  254384.108649 570891.346712 0  254344.002752 570218.26407 0  255025.609604 570829.0294979999 0  255715.005913 570489.264586 0  256218.846343 570774.828355 0  256834.349083 570508.5908 0  257390.092515 570014.308325 0  257624.431042 568493.478911 0  259355.811717 569380.021819 0  260033.372814 569617.066669 0  262679.741751 570320.699974 0  263289.115756 569524.817815 0  263463.114338 570512.301061 0  264638.198419 570687.3443539999 0  265058.220065 571334.378467 0  265447.561421 572077.90485 0  265488.125257 573137.3446020001 0  265131.937715 573963.293593 0  265432.389648 575093.068786 0  265638.122314 576338.029955 0  265750.630817 577371.8281319999 0  265738.570663 578561.9098850001 0  265875.630866 579139.630549 0  266213.129247 579862.311842 0  266563.130472 581112.314509 0  266238.135356 582362.310259 0  265938.12863 583612.320897 0  265738.131342 584762.3210189999 0  266875.638633 585365.358768 0  264018.7239399826 593650.4646671159 0  262236.3944351029 595831.1252656333 0  241846.246678 605206.1436625 0  240200.622106 608424.8903290001 0  240943.4862974102 610939.7757535663 0  236550.6094 599787.3577085 0  238528.1212051503 608102.9081793013 0  244413.4891967989 572609.5960859474 0  236382.0474488751 598808.3067022427 0  235369.601910944 600933.5380148316 0  235413.099011 591037.3503485 0  235446.2251831186 590266.6553871984 0  240475.5921005 578037.3333535 0  240413.173949154 577324.4280286073 0  240574.037899 606283.0066440001 0  263857.9179445 593618.2891454998 0  264153.4303974913 593343.916675058 0  242042.1833925 604946.7714812499 0  241650.3099635 605465.51584375 0  244613.6985165 572229.6575395 0  236631.8579695 598822.2989335 0  235140.029068 600860.444221 0  241767.7287175 604874.0596705 0  242140.15174975 604817.0853906251 0  234781.8558075 600573.1668855001 0  242091.167571125 604881.9284359375 0  234519.3558565 600373.162719 0  254604.8337712102 583989.0014118921 0  250699.5846056537 594617.3297041012 0  250540.4796469513 602258.2940568649 0  248483.7490186612 580334.7345534252 0  258549.2190328319 577893.951823392 0  257067.0067473103 590016.5327808241 0  243285.0921999099 596333.923437875 0  248333.1386145258 589098.0389905117 0  256142.8445072741 595883.3911551933 0  260245.1368072523 583315.2785712298 0  253472.3380211276 578932.2908163272 0  246432.3347504817 599884.5019511909 0  261555.9240922556 588041.186709004 0  247293.1100123104 605823.8307887657 0  246458.2798550911 593168.8646574575 0  252840.0183145193 588226.5564648228 0  249828.2874404451 584740.7888937403 0  255409.5660975206 600458.8956828594 0  260819.9733392385 574219.403683011 0  252584.2262054711 605722.6603825617 0  254049.8830611471 592547.4852571967 0  250015.4356193061 598425.2225922942 0  245872.072249477 577604.9761853142 0  262002.1583249522 579753.4663046852 0  257732.6630933878 586227.970805314 0  250242.5556457866 577017.3316409125 0  244921.6453001869 581816.6358421432 0  256520.3890639471 580904.824006648 0  240779.0970645865 599524.6679555867 0  257100.1829219198 574459.5922545703 0  239912.2630002034 595231.1172704464 0  244703.0875078634 590068.6945953515 0  242549.5490268674 592874.3693043783 0  251586.0465921376 581796.2215047925 0  246643.189997516 596527.447801719 0  251049.7658069622 591057.6752245198 0  253014.5731561695 596998.6601086652 0  238680.2197353724 584542.2309791476 0  259715.365803504 591937.1938619445 0  254097.157218761 575731.4494927844 0  246806.6408589328 586139.0877599345 0  246136.1179750556 602959.471719323 0  253520.7033332401 602835.180253843 0  244125.4295793909 607538.9817227355 0  252546.8895354472 599881.3279113505 0  258289.0983523553 600397.640191779 0  247518.7952199645 583037.3718217331 0  263140.3959879661 582529.2228421422 0  262894.8586894067 585442.3590432997 0  256968.6320599076 593040.7691844478 0  243573.0187527719 600218.2795730785 0  258888.5766127351 595139.7745218446 0  262588.7569809347 576734.8569237856 0  259318.4257992262 580601.2540325444 0  249963.3812725965 607065.7205847671 0  257494.5307999607 583482.5893534871 0  258906.4757205145 572278.8089438241 0  237751.446593475 587300.5805003279 0  255142.4708720699 604956.7580261135 0  258485.4978753244 597756.9250383095 0  255516.7820591553 587791.39641967 0  239758.4692108706 601926.8203218657 0  255873.0092222999 577739.5085867504
[...]
<PointData  Scalars="f_24704-1"> 
<DataArray  type="Float64"  Name="f_24704-1"  format="ascii">4.1362471780451990e+01  4.2692707184983540e+01  4.4707340532250505e+01  4.6557509058135210e+01  4.7909774916173397e+01  4.9961296060601406e+01  5.0637020131255611e+01  5.1054313784487093e+01  5.1111116390413727e+01  5.1831811954175322e+01  5.2315673811535888e+01  5.2099803927443837e+01  5.2207476092139274e+01  5.4660876523438972e+01  5.6093877159582007e+01  5.7277323050465370e+01  5.8759142390341538e+01  6.0234187534489458e+01  6.0163454747753647e+01  6.0643368928116502e+01  6.2856171685433665e+01  6.4594816679881191e+01  6.6576152483702288e+01  6.7611385645857041e+01  6.8168830434347186e+01  6.9493138584796199e+01  6.9875175528895397e+01  7.0626037350442473e+01  7.2003228543496803e+01  7.2809335660935929e+01  7.2985645992451666e+01  7.3404281900428103e+01  7.4497744322646057e+01  7.5417263820785919e+01  7.5594058329621632e+01  7.6505638629578399e+01  7.7780171154296795e+01  7.9130476899906867e+01  8.0099484755806344e+01  8.0906821113490878e+01  8.2119881197781183e+01  8.3265162517670319e+01  8.4280068209468453e+01  8.5165679057706711e+01  8.5947853329421676e+01  8.6111505213572698e+01  8.6531356022632949e+01  8.7077066204147158e+01  8.7513402174546556e+01  8.7718234230125603e+01  8.7761105779771796e+01  8.7802207010587935e+01  8.7783152373273154e+01  8.7868091119561058e+01  8.8089513239744235e+01  8.8072155113566922e+01  8.8075271513575970e+01  8.8168252324064809e+01  8.7925583762670328e+01  8.7182919335381015e+01  8.6356237110760489e+01  8.5677260399035930e+01  8.4592935789531680e+01  8.2840961403224256e+01  8.2638851127526408e+01  8.4846073274489882e+01  8.5414365380161925e+01  8.5544040926073748e+01  8.5697558714288519e+01  8.5912590083453097e+01  8.6199742383742560e+01  8.7261983489680645e+01  8.7674857891613811e+01  8.7920482673658597e+01  8.7977271635418859e+01  8.7704638818053525e+01  8.7091155060238052e+01  8.6486868031179441e+01  8.5868124489416388e+01  8.6258423505590983e+01  8.6570152309468341e+01  8.6998259049529665e+01  8.7119565402243623e+01  8.7113290025549020e+01  8.7161032094524813e+01  8.7135296672750513e+01  8.6852014201000671e+01  8.5944751172468131e+01  8.4448152044933764e+01  8.4282709675037168e+01  8.5779941389887924e+01  8.6425227012785015e+01  8.6618704021172420e+01  8.6472416558256114e+01  8.6562077803366549e+01  8.6407040186452619e+01  8.6395614198230376e+01  8.6194366916362441e+01  8.6107367212527137e+01  8.5816765601106226e+01  8.3532335375985497e+01  8.1134788953814152e+01  7.8013125596315916e+01  7.5024473828977122e+01  7.2168681316522594e+01  6.9834269610316440e+01  6.8027058623760894e+01  6.6381909810117122e+01  6.4706211785507563e+01  6.3181064626562062e+01  6.1253978573476381e+01  6.0558049638677680e+01  6.0973396454880074e+01  6.3940702437669579e+01  6.6253795948200462e+01  6.7185688392719626e+01  6.8142538132052337e+01  6.9836542454822890e+01  7.2184865452809362e+01  7.4977581897664535e+01  7.5788664430534439e+01  7.5797718353591364e+01  7.4577788977905470e+01  7.2238414644972366e+01  7.1822299848089799e+01  7.3926750218169801e+01  7.5363661279573634e+01  7.5861197990139630e+01  7.5866251901959686e+01  7.4324548524722886e+01  6.9584984102373284e+01  6.8866452016254598e+01  6.7803434105860475e+01  6.7225968371203038e+01  6.6317989924396443e+01  6.5175758750347555e+01  6.3800918589542000e+01  6.2480132451239541e+01  6.1297494770952092e+01  6.0790679853734851e+01  6.0491729319420088e+01  6.0379282019898667e+01  6.0043436225336031e+01  5.9944448908282290e+01  5.9956225513648789e+01  6.0405876596364784e+01  6.1058192720220497e+01  6.1147285008114913e+01  5.9963074438760515e+01  5.8674441201381583e+01  5.7463647439335503e+01  5.6723968929856149e+01  5.6397919394078230e+01  5.4900148858055822e+01  5.3530566858792334e+01  5.2289279936679350e+01  5.1903434044254944e+01  5.0731192544239789e+01  4.9263842767257827e+01  4.9364314045554714e+01  4.8829377582125858e+01  4.7989181927032355e+01  4.6081907848164207e+01  4.3868739460457938e+01  4.2434324086157453e+01  4.0827800893112013e+01  3.9488679656235192e+01  3.8211510415478585e+01  3.7476822938142554e+01  3.7020760684345881e+01  3.5994755726217669e+01  3.5382946990941029e+01  3.5313953232854495e+01  3.5208612890971537e+01  3.4687087542217860e+01  3.4231920243828185e+01  3.3793371248744705e+01  3.7425552757590623e+01  4.4330774374494304e+01  3.7713735092127926e+01  3.4836116736657537e+01  3.3063998270641953e+01  3.3222144797608323e+01  3.3266502475423792e+01  3.2923805841310397e+01  3.2485013373728648e+01  3.2093982401297247e+01  3.2155016616011189e+01  3.2670638652810972e+01  3.3449753890623455e+01  3.4222212546934188e+01  3.5002935695868899e+01  3.5999668514174040e+01  3.6469614656600534e+01  3.7053982916364902e+01  3.8401546385880962e+01  4.0262761445825866e+01  4.1186223700348897e+01  4.0883206706804081e+01  4.0833828292550074e+01  5.2259060795403826e+01  6.0390490305010573e+01  8.5189139988782145e+01  8.7618029108826761e+01  8.8061371534359807e+01  8.5227783676232903e+01  8.7898370366764084e+01  4.9184957438741073e+01  8.5040636216271238e+01  8.6581524646149660e+01  7.3419981064966805e+01  7.2619853441850950e+01  6.0110634796167716e+01  5.9964775249674560e+01  8.6802808157334482e+01  5.2259217028132696e+01  5.2123458100938834e+01  8.4904281055838595e+01  8.5450250669800255e+01  4.9183918018304006e+01  8.4136013400956827e+01  8.6581580665835375e+01  8.5570425080097507e+01  8.4752744713598219e+01  8.6530795314637260e+01  8.4829346745907912e+01  8.6530188940983507e+01  4.9166123611454836e+01  6.6762369138748383e+01  7.5817185534404487e+01  5.1566899781969383e+01  3.6470512773343053e+01  5.2916239740661211e+01  7.5151024594834169e+01  6.1177080356235457e+01  6.4437664159764367e+01  4.2061352792654198e+01  4.3019415367470216e+01  7.5369214396137224e+01  4.6665403802191328e+01  8.2096590206602102e+01  6.7556938005008135e+01  5.4329661794315591e+01  5.6578667474326153e+01  6.8917177068367280e+01  3.3714649935310888e+01  7.8078538267415070e+01  6.1571784771069872e+01  7.0600975364412420e+01  5.2204527604686874e+01  3.6859562573847512e+01  4.6879301048258249e+01  4.5121851690414836e+01  5.7589455597189882e+01  4.2922348385802835e+01  8.1283343940977105e+01  3.6625303843966449e+01  7.5824053550300150e+01  6.4537693060476101e+01  7.0086921559476906e+01  5.0682146780679858e+01  7.2573298342113702e+01  6.0315732394037106e+01  6.7824376570501940e+01  6.4881488761897870e+01  5.5742611281355892e+01  3.8630372880754514e+01  5.9720675940790812e+01  7.9776011083610655e+01  7.4594836614551085e+01  8.5583976265952600e+01  7.1134052102905144e+01  6.9545348102039952e+01  5.6313447646527621e+01  3.9534293019678564e+01  4.1722603639086408e+01  5.9356609772898963e+01  7.9174909015543506e+01  6.1028824788819669e+01  3.5156810846146556e+01  3.9081334345776959e+01  8.1252961045481328e+01  4.5142174376875758e+01  3.2153228348188378e+01  6.7797467696947692e+01  7.5939655131316357e+01  6.5321672633031326e+01  4.9302352234146909e+01  8.5249768587688664e+01  3.8420465683761357e+01  5.0919462439809493e+01  5.9998052617372792e+01  6.5327303576769395e+01  5.6420757210448890e+01  4.7083041944530073e+01  4.3790404074000271e+01  5.6212050100978345e+01  4.7970696707389095e+01  4.7862818195580815e+01  4.4656221813694607e+01  4.9350103417918355e+01  8.4635554127598823e+01  7.8601588411686549e+01  5.2990265943423310e+01  8.3214941780720537e+01  7.5846222985197286e+01  7.3673883004591090e+01  8.0610662341762065e+01  6.2649082160896022e+01  5.9145368247557990e+01  6.6273089723753799e+01  7.2373479441142692e+01  5.7957909489195941e+01  7.8286820148721361e+01  5.0586151850705278e+01  6.5606051728393567e+01  3.2602244897218455e+01  4.9378766799528435e+01  6.8976949095310232e+01  7.7561868274138348e+01  6.3665073312867840e+01  7.0994753683010458e+01  6.2173134211821228e+01  7.1685471483942649e+01  3.5697510474457538e+01  5.3331963051841207e+01  5.3378528319192071e+01  7.9863746656802775e+01  6.7286484373877030e+01  3.7496800072988719e+01  7.9416393713416852e+01  6.3565200558008911e+01  8.4361824824558894e+01  3.3424050747218701e+01  8.4871938460364262e+01  8.4798985669730840e+01  5.5323909600620574e+01  5.0997806777355855e+01  8.4870113429614705e+01  8.5867912269733438e+01  8.3021875550544650e+01  8.5200040557364417e+01  7.1537502074123452e+01  3.6125491511251994e+01  8.0859004558310090e+01  7.5926133478446289e+01  5.6191531142236492e+01  5.0576663719575606e+01  4.7312693203549642e+01  8.5600507133529945e+01  8.4792651256477555e+01  5.8462610104669913e+01  8.5939667749681973e+01  8.3799271012774412e+01  8.4299305115088643e+01  8.6020119438566141e+01  5.9822125791958761e+01  4.9068807435742166e+01  7.1226465726365859e+01  3.4223355275810356e+01  4.9108749473262151e+01  3.6618027586768100e+01  6.9233199717692585e+01  8.7386765557485873e+01  6.6747330303739901e+01  7.2821741000867348e+01  8.3501512048265411e+01  6.0131295122655153e+01  3.2301020544179806e+01  7.2078894263764056e+01  3.9515931732896853e+01  5.2373406787605354e+01  8.4962665397775964e+01  8.2985622596698903e+01  6.2085453118722135e+01  8.7392386446253042e+01  4.3927581028248909e+01  8.5503408886938431e+01  6.3936656964869179e+01  3.2552130998077580e+01  3.6295266738329978e+01  3.7416934463205820e+01  7.2585393858686601e+01  8.1916878104870179e+01  8.1228004223613937e+01  6.8740566360335876e+01  8.5328900973637829e+01  6.0094162573987539e+01  4.9045703532839347e+01  4.9035438222262918e+01  3.2949351627283590e+01  8.4867353222679014e+01  8.5049624181798677e+01  8.5121482372877381e+01  7.5656544904514519e+01  8.1648661879723079e+01  8.5194284682674152e+01  8.3626044387020599e+01  6.6984443686963019e+01  8.8009563360318339e+01  8.7955785474149707e+01  6.1185710458067106e+01  3.5080067104053462e+01  6.1023068237005120e+01  8.2144746379739203e+01  5.6025426938234006e+01  6.4691510050590807e+01  8.7589203162939924e+01  6.1867988664063958e+01  7.3461920383708204e+01  4.0908739874828882e+01  5.6452228837283897e+01  5.5679295988532800e+01  5.7073468654858580e+01  8.5968731190008185e+01  5.0414269830911486e+01  5.1299893475190018e+01  4.9440808974366718e+01  5.1169861660904338e+01  4.7444955087848058e+01  3.2902559192607804e+01  3.1377782677990044e+01  5.2323046211454979e+01  5.5050257700903657e+01  7.5531266024690339e+01  7.5451994872569870e+01  8.7808661118483272e+01  6.7009249743367803e+01  6.4859046591799810e+01  6.0772640037816970e+01  6.0312593816789040e+01  6.0425590316425250e+01  6.0640101960971926e+01  6.0317969277077701e+01  6.0355217896846845e+01  6.2311449308564058e+01  6.0507883205755583e+01  6.1162301032548676e+01  6.4119280563914245e+01  6.2496124162009771e+01  5.8690844006285403e+01  6.0191146822518483e+01  4.4889188977501199e+01  4.6582944843643560e+01  4.4767492204083510e+01  4.3152781866642428e+01  4.3708571978863183e+01  4.1680271230464150e+01  4.2983903594525692e+01  4.2277501395407306e+01  3.8960676095850843e+01  3.7781325533575107e+01  3.4082671199849685e+01  3.4598554788468768e+01  3.4534899727117079e+01  3.5492222412932293e+01  3.4954472327766517e+01  3.6242775795022887e+01  3.6262672121738703e+01  3.5472659790420252e+01  3.6761457094319212e+01  3.6454442163933180e+01  3.7251065951002232e+01  3.6693695590323273e+01  3.7973309167475819e+01  4.0328120334947812e+01  3.8915868280323750e+01  4.7048320502905312e+01  4.6504541432029370e+01  4.6874793910101708e+01  5.0080649774219076e+01  6.7863365929440974e+01  6.7182943883358689e+01  6.6253749328316573e+01  6.7726854360151449e+01  7.3854708828114596e+01  7.7267981690504996e+01  7.4845345915317509e+01  7.6920054391281013e+01  5.4144295022345538e+01  4.9935125431342954e+01  5.0224857114554773e+01  5.2254964581987473e+01  3.6913779837944624e+01  3.8616994710788127e+01  3.6719234992154611e+01  3.7485195464766363e+01  3.6960672113537605e+01  3.6228930878980890e+01  5.4677165767520250e+01  5.6243231572166636e+01  5.0846108290908688e+01  5.4062707324284908e+01  5.0969093206440164e+01  7.5542701771156729e+01  7.2761197275130996e+01  6.0378492162443251e+01  6.0320275980405285e+01  6.2637598463129059e+01  5.9692529981338602e+01  6.2430716718333862e+01  6.1193489072693502e+01  6.3260687834843409e+01  6.6254708490972618e+01  6.5138667935354022e+01  3.8603963816636259e+01  4.0111252662063599e+01  4.1851933044829586e+01  4.0692282669751940e+01  4.3479660648686398e+01  4.2914113126989406e+01  4.7254875611850323e+01  4.0076512278633302e+01  4.0541155581358630e+01  4.5189885884831718e+01  4.5538981179893909e+01  7.2734747044602727e+01  7.7347323260047929e+01  7.4058301026281555e+01  7.8182837438860787e+01  8.1052853945523324e+01  7.0371093120613637e+01  6.5465305239456669e+01  6.9195853861338819e+01  6.7221382887399557e+01  5.1469610303529649e+01  5.5192713548211401e+01  5.6128843735769465e+01  5.1783088237788157e+01  7.1951686758137726e+01  6.9275027320216722e+01  6.9375226745303891e+01  6.6921302854677222e+01  3.5098876046791901e+01  3.4236433718693128e+01  6.1422667259734958e+01  6.0286744829419639e+01  5.9109854627070291e+01  7.1269263034227961e+01  6.9000879123421655e+01  7.2428126079401579e+01  6.9181948649729691e+01  5.4224343944498379e+01  5.0277767893204086e+01  5.0640307021304167e+01  5.2399670369391522e+01  5.0866096022098361e+01  5.2586401535158998e+01  3.7616622316665705e+01  3.6431273837371521e+01  3.7574399600557662e+01  3.6465987768331566e+01  3.7021424871409380e+01  3.6864014591012719e+01  4.5975871024965592e+01  4.7644156941463372e+01  4.7865278007421637e+01  4.7676848285698782e+01  4.0962106876941277e+01  4.6370734205921416e+01  4.6432608116048613e+01  4.7509153849615551e+01  4.1768174686771651e+01  4.4402567204556711e+01  5.7156373663661100e+01  5.8982847087041144e+01  5.6743609799208997e+01  5.5845961306038198e+01  4.0814218256052101e+01  4.4376061251714063e+01  4.0107446991209763e+01  4.5019418221195359e+01  3.7677703117440466e+01  3.4829890099586727e+01  3.7536685658960238e+01  3.6161647342282080e+01  3.6376214663482109e+01  3.5519322977474609e+01  3.7074315673453384e+01  6.3690835862411518e+01  6.3269892339276204e+01  6.5772011540259854e+01  6.5945604984997630e+01  7.0517043149215183e+01  4.8938308461408411e+01  4.9386065817694700e+01  7.0700526761523079e+01  6.2692253566189343e+01  5.9339644943836419e+01  5.8626556447273515e+01  6.1979881509142515e+01  6.9095865801110236e+01  6.7121074691768285e+01  6.3672298416288911e+01  6.3421554693514757e+01  5.7484707923800165e+01  5.2653875780784915e+01  3.8812181543443280e+01  3.8810900772185036e+01  3.7954780966768816e+01  5.9209167375989772e+01  6.0836279466356650e+01  7.6319356571760935e+01  7.8885877574857759e+01  7.2808029603489700e+01  7.6645144609150577e+01  7.3216274283089618e+01  7.3206720198185963e+01  6.7894815872351828e+01  6.7425451446805624e+01  5.5173912362080088e+01  3.8445866224378655e+01  5.7389511670334009e+01  5.8990587924994728e+01  3.5275682913859477e+01  3.6110555329001542e+01  3.5179757219516695e+01  4.2456924936339355e+01  4.4907330716887252e+01  5.2425557786486820e+01  4.8862124958974157e+01  4.9400487176398393e+01  5.0512145690903097e+01  5.9692575482240350e+01  5.9987838573532009e+01  6.0583936412961293e+01  6.0702349126733083e+01  6.4582098902721597e+01  6.4215480093640863e+01  5.4773777073594339e+01  5.0206795654032177e+01  4.8588670303341829e+01  5.0798378382914734e+01  4.8674738154888956e+01  4.5797929971779155e+01  4.7040588832263282e+01  5.5526505761599928e+01  5.2163043629181999e+01  7.5864096036185302e+01  5.4175883428554506e+01  5.1070805118272673e+01  6.2425282002455312e+01  6.5139945172918004e+01  6.9053138159034631e+01  6.7081678547394276e+01  3.7045331254061075e+01  3.4175006483725305e+01  3.6858868860180714e+01  5.9960325608467137e+01  3.5952264541980448e+01  6.0727170655821169e+01  4.1749859456430279e+01  3.8256566546414362e+01  6.1466754422140014e+01  4.8400776142546782e+01  6.7780988430848026e+01  3.6674085224344751e+01  3.7141318394880741e+01  3.6441017882692250e+01  3.6620352728702976e+01  3.6366113573772452e+01  6.1770929538429790e+01  4.3152522557165859e+01  4.5185469668758444e+01  4.4238697447660030e+01  7.5550016174870848e+01  5.8129716225498235e+01  5.2868503808914880e+01  5.2908057564407081e+01  5.3932756501623665e+01  3.4948041756195124e+01  6.8995622067128394e+01  6.9605647160547065e+01  3.7382602977763739e+01  3.7077938890093478e+01  4.6685238858625318e+01  4.7042467425229987e+01  4.2920591451796852e+01  5.6626649571383915e+01  6.0056850044948021e+01  6.1393661870596198e+01  5.9183170101550452e+01  6.2189042688726062e+01  3.9533228982898102e+01  3.8111275501715589e+01  3.8652221013135147e+01  3.8294921520417198e+01  6.9445780565352763e+01  3.8251411143757110e+01  3.9885159617461255e+01  4.0734662560335437e+01  4.9956770487904883e+01  5.0273120655360479e+01  5.0675529057434417e+01  4.8870827901484127e+01  3.9448229782161221e+01  3.7796509361664178e+01  3.8675870802463031e+01  4.9141428035274018e+01  7.3058036077349669e+01  7.3709228011823853e+01  7.4755582560943253e+01  6.2336580337051622e+01  6.6843799182227102e+01  5.2239019110577587e+01  4.9757066068374996e+01  4.8946616044064129e+01  5.0246879697504120e+01  6.4289386921586839e+01  6.1506337030622419e+01  6.2194694235512820e+01  3.6303616586414186e+01  3.6041531671942316e+01  3.5882208890803838e+01  5.2722901925429973e+01  5.4598975754522797e+01  5.4179737664398765e+01  5.2048256370731181e+01  6.6186764680011862e+01  3.6095001728521289e+01  3.6389493681981456e+01  3.6306335331133880e+01  6.0536499260957520e+01  6.0292901253204263e+01  6.0356787719646967e+01  4.2911181939760112e+01  4.4132205758492788e+01  4.4820803104946641e+01  3.7489188585956860e+01  3.5278337572136756e+01  3.5621371334330057e+01  6.1427336153675896e+01  6.2857825549885767e+01  6.2044024610979996e+01  6.1223458732488716e+01  6.1244312812644964e+01  6.1621642950946345e+01  6.0909647653201674e+01  4.5183655667865956e+01  3.5707555739883482e+01  4.7358398570458938e+01  6.8411455755591817e+01  5.1171827753566319e+01  5.0618380313874120e+01  3.6496886718230670e+01  3.7528005837709088e+01  3.7659476564941620e+01  3.8881508728573685e+01  3.8162281618409800e+01  3.7166865691778547e+01  5.0740390036499960e+01  4.9690813743353225e+01  4.9844071547760983e+01  6.1215162572966321e+01  6.1776756427950666e+01  3.7907065298624772e+01  3.8710556774638974e+01  4.1429210983980305e+01  4.1952974994878289e+01  4.6444021565958614e+01  4.0249071809094019e+01  4.0291912798184832e+01  3.9474599307017513e+01  4.7621339808109376e+01  7.5015696227216068e+01  5.1864685236666404e+01  5.3784316078677541e+01  5.2929877934951172e+01  6.7773551666042124e+01  6.8421090224234050e+01  6.7116682191757164e+01  5.1461539661845521e+01  5.3521554213885025e+01  5.1645997818947244e+01  4.5075518608492779e+01  5.5501728998340596e+01  5.5174422929996219e+01  3.8221234474758127e+01  3.7791589526781749e+01  6.4661605236740229e+01  6.4349263047127579e+01  6.5382954077827222e+01  3.8327207553637933e+01  3.6045196127726918e+01  </DataArray> 
</PointData> 
</Piece>
</UnstructuredGrid>
</VTKFile>