<?xml version="1.0"?>
<VTKFile type="UnstructuredGrid"  version="0.1"  >
<UnstructuredGrid>
<Piece  NumberOfPoints="784" NumberOfCells="1320">
<Points>
<DataArray  type="Float64"  NumberOfComponents="3"  format="ascii">266913.131276 586512.314988 0  266738.13716 587762.325998 0  266363.132677 589012.328643 0  266175.641078 590169.601714 0  265666.575631 591040.7699119999 0  264875.64001 591687.766419 0  264900.636161 591845.049083 0  266088.14152 592012.3229499999 0  265561.959259 592661.17101 0  264288.136855 593037.368683 0  263865.194033 593999.8486949999 0  263850.641856 593236.729596 0  263625.634872 592756.525286 0  262689.574249 593299.848918 0  262475.636737 594003.0907310001 0  261934.554452 594340.929792 0  261725.631329 594932.094409 0  261729.256443 595728.498809 0  262138.136044 595012.330523 0  262288.141035 596262.333669 0  261488.994028 597511.480605 0  261234.15567 598316.338928 0  260815.635063 599014.863821 0  261400.643658 599389.7367680001 0  261322.963374 600022.185065 0  261119.455248 600931.061306 0  261607.436504 601293.0629359999 0  260807.446929 602089.899812 0  260025.642878 602988.868697 0  259613.135827 603937.3854499999 0  259050.643123 604100.987861 0  258411.880065 603988.6335979999 0  257764.357469 604449.872569 0  257971.239668 605320.429125 0  258041.396867 605740.635381 0  257188.143339 606987.394312 0  256038.141198 608112.3554550001 0  254788.141633 609087.4026939999 0  253588.140656 609812.362881 0  252338.135706 609737.4048949999 0  251088.138116 609787.404055 0  249963.12851 610287.399466 0  248613.130524 610462.365857 0  247363.132198 610687.407659 0  246113.130532 610837.411551 0  245832.347438 610918.209918 0  245016.946433 610958.5639439999 0  244313.129646 610762.372259 0  244400.622144 611378.093316 0  243939.669208 612460.8930899999 0  242960.649733 611984.892792 0  242170.381438 611919.647351 0  241888.122919 611112.375656 0  241393.380757 610467.6456149999 0  240594.157528 611306.369822 0  240525.621947 610804.648112 0  240363.123632 610512.3745050001 0  239113.123247 610262.374278 0  239813.12126 609037.412459 0  240588.122952 607812.368199 0  241013.119545 606625.9534560001 0  241454.373249 605724.888025 0  242238.120107 604687.3993 0  243088.121248 603462.362766 0  242860.319451 603007.3932640001 0  241563.116617 603812.361344 0  241778.400913 604327.642217 0  242059.837234 604824.879102 0  241475.620201 604923.2402390001 0  241462.182234 605449.881372 0  240906.219606 605674.888222 0  240241.856192 606891.125066 0  239891.734044 607841.012479 0  239048.653431 608724.889805 0  238118.054545 608974.895967 0  238888.111029 607337.406468 0  239738.119992 606212.362729 0  240288.12044 605687.4075229999 0  240380.212307 604729.521696 0  239347.309632 604603.204501 0  238888.112036 604387.408787 0  237913.11173 604687.401386 0  236784.172023 604499.882783 0  236883.408793 603717.08334 0  236154.933927 603595.565605 0  235688.103943 602912.369264 0  235763.108033 601662.366516 0  236363.110805 600412.35884 0  236738.107995 599162.356577 0  236525.607944 598482.2412899999 0  236138.109208 599362.357613 0  235725.063048 600325.4466510001 0  235091.948926 601408.5220979999 0  235188.10921 600312.366344 0  234375.602405 600833.9674270001 0  234663.109308 599912.358011 0  234138.105122 600062.365644 0  233955.307245 599029.561063 0  233338.103791 598387.401556 0  233988.09795 597862.356384 0  235138.101489 596637.3947750001 0  235563.1039 595387.392428 0  236513.103639 594212.356312 0  237163.10684 592987.3929869999 0  238313.103031 591862.3515540001 0  239513.107028 590812.3512640001 0  240638.102135 589787.387271 0  241463.109549 588587.378486 0  242294.489816 587443.735215 0  242913.101099 586512.341804 0  243544.066915 585474.859604 0  243040.448415 585184.975583 0  242438.10214 585337.38015 0  241313.102353 586562.339499 0  240538.107104 587787.382449 0  240114.641085 588588.939407 0  239388.100256 589437.382238 0  238188.104456 590512.346358 0  236938.100507 591362.349798 0  235813.10453 592537.396388 0  234864.502938 593178.7753880001 0  234463.097651 592862.357267 0  235113.0965 591662.3545979999 0  235713.101522 590412.346099 0  235777.688431 589976.7582779999 0  234943.583145 590706.265132 0  234462.482256 591490.2841159999 0  233801.497784 592112.940187 0  233388.099101 591787.394208 0  234013.093099 590437.393065 0  234776.217248 587148.7548100001 0  235163.093726 586562.3486189999 0  235313.098918 585483.229012 0  235250.59732 584662.298153 0  235588.093896 583337.379493 0  236329.432041 582199.858992 0  237188.096234 581462.3349939999 0  237463.088521 580212.335511 0  238350.592558 579057.652616 0  238591.415797 578574.847681 0  238313.094106 577612.328905 0  239229.696732 577695.769664 0  240195.161018 577513.008613 0  240614.996733 577149.8518770001 0  240663.091715 577412.332622 0  240288.092486 578662.334085 0  239942.357258 579508.095811 0  240438.100019 580212.3334220001 0  241338.095553 580387.375355 0  241238.099828 579137.369157 0  241788.097003 577887.370889 0  241983.554649 577241.9220939999 0  242054.178239 576927.8105029999 0  242588.100699 575737.366175 0  243149.324833 574898.583978 0  243695.278626 573919.517981 0  244268.494418 573724.8454239999 0  244995.134063 573930.2767810001 0  245417.314363 573391.601898 0  243450.599125 571859.479773 0  245776.797908 572599.8353060001 0  246779.639852 572973.285167 0  248034.741935 573186.082054 0  249413.10651 573162.3205520001 0  250496.922226 573271.1521899999 0  251613.105126 573237.3551319999 0  252421.824577 572846.032906 0  253256.245022 572580.4733130001 0  253739.471933 571960.9547369999 0  254174.511864 572149.8346569999 0  254484.944333 571684.194807 0  254384.108649 570891.346712 0  254344.002752 570218.26407 0  255025.609604 570829.0294979999 0  255715.005913 570489.264586 0  256218.846343 570774.828355 0  256834.349083 570508.5908 0  257390.092515 570014.308325 0  257624.431042 568493.478911 0  259355.811717 569380.021819 0  260033.372814 569617.066669 0  262679.741751 570320.699974 0  263289.115756 569524.817815 0  263463.114338 570512.301061 0  264638.198419 570687.3443539999 0  265058.220065 571334.378467 0  265447.561421 572077.90485 0  265488.125257 573137.3446020001 0  265131.937715 573963.293593 0  265432.389648 575093.068786 0  265638.122314 576338.029955 0  265750.630817 577371.8281319999 0  265738.570663 578561.9098850001 0  265875.630866 579139.630549 0  266213.129247 579862.311842 0  266563.130472 581112.314509 0  266238.135356 582362.310259 0  265938.12863 583612.320897 0  265738.131342 584762.3210189999 0  266875.638633 585365.358768 0  264018.7239399826 593650.4646671159 0  262236.3944351029 595831.1252656333 0  241846.246678 605206.1436625 0  240200.622106 608424.8903290001 0  240943.4862974102 610939.7757535663 0  236550.6094 599787.3577085 0  238528.1212051503 608102.9081793013 0  244413.4891967989 572609.5960859474 0  236382.0474488751 598808.3067022427 0  235369.601910944 600933.5380148316 0  235413.099011 591037.3503485 0  235446.2251831186 590266.6553871984 0  240475.5921005 578037.3333535 0  240413.173949154 577324.4280286073 0  240574.037899 606283.0066440001 0  263857.9179445 593618.2891454998 0  264153.4303974913 593343.916675058 0  242042.1833925 604946.7714812499 0  241650.3099635 605465.51584375 0  244613.6985165 572229.6575395 0  236631.8579695 598822.2989335 0  235140.029068 600860.444221 0  241767.7287175 604874.0596705 0  242140.15174975 604817.0853906251 0  234781.8558075 600573.1668855001 0  242091.167571125 604881.9284359375 0  234519.3558565 600373.162719 0  254604.8337712102 583989.0014118921 0  250699.5846056537 594617.3297041012 0  250540.4796469513 602258.2940568649 0  248483.7490186612 580334.7345534252 0  258549.2190328319 577893.951823392 0  257067.0067473103 590016.5327808241 0  243285.0921999099 596333.923437875 0  248333.1386145258 589098.0389905117 0  256142.8445072741 595883.3911551933 0  260245.1368072523 583315.2785712298 0  253472.3380211276 578932.2908163272 0  246432.3347504817 599884.5019511909 0  261555.9240922556 588041.186709004 0  247293.1100123104 605823.8307887657 0  246458.2798550911 593168.8646574575 0  252840.0183145193 588226.5564648228 0  249828.2874404451 584740.7888937403 0  255409.5660975206 600458.8956828594 0  260819.9733392385 574219.403683011 0  252584.2262054711 605722.6603825617 0  254049.8830611471 592547.4852571967 0  250015.4356193061 598425.2225922942 0  245872.072249477 577604.9761853142 0  262002.1583249522 579753.4663046852 0  257732.6630933878 586227.970805314 0  250242.5556457866 577017.3316409125 0  244921.6453001869 581816.6358421432 0  256520.3890639471 580904.824006648 0  240779.0970645865 599524.6679555867 0  257100.1829219198 574459.5922545703 0  239912.2630002034 595231.1172704464 0  244703.0875078634 590068.6945953515 0  242549.5490268674 592874.3693043783 0  251586.0465921376 581796.2215047925 0  246643.189997516 596527.447801719 0  251049.7658069622 591057.6752245198 0  253014.5731561695 596998.6601086652 0  238680.2197353724 584542.2309791476 0  259715.365803504 591937.1938619445 0  254097.157218761 575731.4494927844 0  246806.6408589328 586139.0877599345 0  246136.1179750556 602959.471719323 0  253520.7033332401 602835.180253843 0  244125.4295793909 607538.9817227355 0  252546.8895354472 599881.3279113505 0  258289.0983523553 600397.640191779 0  247518.7952199645 583037.3718217331 0  263140.3959879661 582529.2228421422 0  262894.8586894067 585442.3590432997 0  256968.6320599076 593040.7691844478 0  243573.0187527719 600218.2795730785 0  258888.5766127351 595139.7745218446 0  262588.7569809347 576734.8569237856 0  259318.4257992262 580601.2540325444 0  249963.3812725965 607065.7205847671 0  257494.5307999607 583482.5893534871 0  258906.4757205145 572278.8089438241 0  237751.446593475 587300.5805003279 0  255142.4708720699 604956.7580261135 0  258485.4978753244 597756.9250383095 0  255516.7820591553 587791.39641967 0  239758.4692108706 601926.8203218657 0  255873.0092222999 577739.5085867504
[...]
<PointData  Scalars="f_24704-1"> 
<DataArray  type="Float64"  Name="f_24704-1"  format="ascii">4.0988940069598264e+01  4.2350003745381130e+01  4.4403461447893470e+01  4.6350800027377247e+01  4.7750791758175652e+01  4.9761551413031135e+01  5.0426192580168362e+01  5.0673192262121887e+01  5.0820000083216250e+01  5.1906050928896299e+01  5.2672443798716877e+01  5.2285227642204674e+01  5.2150982602453517e+01  5.4417419701744471e+01  5.5754093821278779e+01  5.6887760082257557e+01  5.8281451318571662e+01  5.9599325629641022e+01  5.9325568049221410e+01  5.9983403779008235e+01  6.2428423692506108e+01  6.4170454084999449e+01  6.6089002767490172e+01  6.7041924284643457e+01  6.7614948140089410e+01  6.9051600413178463e+01  6.9449935194757259e+01  7.0304036062276680e+01  7.1815582437797218e+01  7.2656654133536435e+01  7.2818790659244783e+01  7.3167017291614826e+01  7.4128720568290959e+01  7.4969831042562916e+01  7.5137653221203863e+01  7.6070444730826168e+01  7.7384734144370867e+01  7.8788953366077848e+01  7.9843855940349087e+01  8.0643599765128357e+01  8.1850966952150159e+01  8.2999501765076118e+01  8.4002499802302736e+01  8.4870736660933474e+01  8.5634874293636386e+01  8.5789824356260155e+01  8.6177839633029805e+01  8.6690924566491077e+01  8.7131079424486046e+01  8.7359362397390385e+01  8.7428719126260390e+01  8.7490305095761471e+01  8.7448760064580782e+01  8.7518533953959420e+01  8.7790881554662391e+01  8.7765888888485009e+01  8.7764689601149769e+01  8.7884201566552036e+01  8.7573805695729746e+01  8.6783774525669884e+01  8.5957912723802693e+01  8.5263264547599420e+01  8.4196766125881823e+01  8.2480861912218501e+01  8.2219256766367494e+01  8.4348384149847604e+01  8.4902497166987658e+01  8.5025015017240577e+01  8.5199139866656012e+01  8.5433957780475481e+01  8.5734593568995265e+01  8.6795319052294104e+01  8.7246694042779467e+01  8.7580138910794048e+01  8.7667659989506191e+01  8.7286488201224259e+01  8.6622548090223702e+01  8.6025794589835328e+01  8.5408401056645829e+01  8.5845483518890333e+01  8.6178855287398065e+01  8.6609467031847402e+01  8.6722997745915521e+01  8.6724871788051374e+01  8.6787701370979420e+01  8.6770455801617061e+01  8.6479022024535993e+01  8.5592882839546974e+01  8.4126002079419720e+01  8.3986269793200236e+01  8.5488344239559936e+01  8.6161203832599654e+01  8.6364736004255462e+01  8.6226619000504328e+01  8.6354541542236319e+01  8.6194861308468688e+01  8.6207728084074247e+01  8.6023383573649795e+01  8.5952031448141199e+01  8.5645998671342241e+01  8.3337757023698344e+01  8.0888417310857164e+01  7.7628229204120146e+01  7.4496522057322082e+01  7.1467227118095863e+01  6.9185072725673152e+01  6.7544481210315453e+01  6.6045257157996517e+01  6.4476773804005674e+01  6.3019252956947156e+01  6.1291454918040934e+01  6.0765278389481672e+01  6.1237843491298868e+01  6.4005193822471227e+01  6.6020795915734993e+01  6.6849256141732255e+01  6.7745282481617892e+01  6.9383703464382450e+01  7.1819259093208203e+01  7.5158729919363140e+01  7.6289337973235746e+01  7.6303617941204948e+01  7.4647166037361799e+01  7.1883643767412295e+01  7.1461403265529924e+01  7.3871770845706081e+01  7.5624009012394396e+01  7.6287403672136023e+01  7.6300371990484265e+01  7.4347833565021119e+01  6.9324305985438727e+01  6.8617056242428106e+01  6.7604041061586841e+01  6.7064386542094667e+01  6.6143507300199559e+01  6.4931647825496654e+01  6.3535045617680211e+01  6.2236501811028170e+01  6.0998102217182669e+01  6.0443163147260812e+01  6.0136031185114945e+01  5.9937701004003252e+01  5.9405256768463481e+01  5.9253880968431140e+01  5.9271881946466728e+01  5.9886915198580873e+01  6.0638418340550501e+01  6.0778497278553161e+01  5.9754359348619374e+01  5.8578607034862621e+01  5.7391307410029953e+01  5.6666799686357557e+01  5.6343706694228800e+01  5.4814526745416352e+01  5.3351503155861806e+01  5.1955902815528674e+01  5.1541879933189030e+01  5.0389780270526813e+01  4.8917225283195684e+01  4.9289736527598563e+01  4.8463317811821881e+01  4.7549900677371056e+01  4.5730236448688373e+01  4.3596167107396298e+01  4.2223831940289095e+01  4.0716234783365074e+01  3.9409706180258318e+01  3.8116992354770602e+01  3.7370979826224655e+01  3.6915851546751071e+01  3.5846176433769251e+01  3.5154383544808013e+01  3.5060202133309822e+01  3.4936413950708207e+01  3.4312438965662729e+01  3.3835321738607142e+01  3.2900542524050991e+01  3.6057094667148291e+01  4.8742983056229839e+01  3.8746307774477458e+01  3.5104585083221508e+01  3.2977986105892235e+01  3.2819661576013836e+01  3.3399203599735941e+01  3.2718975479249870e+01  3.2023202164884601e+01  3.1610834972010171e+01  3.1828936842739576e+01  3.2423800140656532e+01  3.3194055208568741e+01  3.3962889031120689e+01  3.4845896257406828e+01  3.5988450192533115e+01  3.6349647489782008e+01  3.6711136882191177e+01  3.8034095156926220e+01  4.0264654162283058e+01  4.1180181645019871e+01  4.0463363225497879e+01  4.0400435477150069e+01  5.2572841715099109e+01  5.9677973519525132e+01  8.4774643896205276e+01  8.7229472798639506e+01  8.7753685842142190e+01  8.4891040375573425e+01  8.7548378599472244e+01  4.9012929319281305e+01  8.4750030717407654e+01  8.6326158353473872e+01  7.3226671809977290e+01  7.2374307811085117e+01  5.9498428938337923e+01  5.9285025875990918e+01  8.6338199349776119e+01  5.2573329780161018e+01  5.2338457588027509e+01  8.4496730665295999e+01  8.5033870868516075e+01  4.9011827846042472e+01  8.3822240794301464e+01  8.6326044358037109e+01  8.5056074827999609e+01  8.4350368362547954e+01  8.6316089899439220e+01  8.4424250593641389e+01  8.6315814947777653e+01  4.9452156036986040e+01  6.7028764593634691e+01  7.5627352005843690e+01  5.2046342214914823e+01  3.7116953408355180e+01  5.4225015636382778e+01  7.4782532417468360e+01  6.1617791974235722e+01  6.4174501281744725e+01  4.1977960374713788e+01  4.4032170665415407e+01  7.5853650816102018e+01  4.6362920319328985e+01  8.1648464911345073e+01  6.7753967243638144e+01  5.5612939999155337e+01  5.6579293524922889e+01  6.9451564133037110e+01  3.3669147815467305e+01  7.7605135529666114e+01  6.1620165490067208e+01  7.1485042832016703e+01  5.2246630781259185e+01  3.7135725656865354e+01  4.7820383117811531e+01  4.5409207966317318e+01  5.7675576842995255e+01  4.3119716449360858e+01  8.0790272409011266e+01  3.6616168471653403e+01  7.5239952572628539e+01  6.5698845073136937e+01  6.9628641537238011e+01  5.0479729366314977e+01  7.2386299412911598e+01  6.1295337747856038e+01  6.8240535607633348e+01  6.4737843500918771e+01  5.5652664736422523e+01  3.8980439135566556e+01  5.9744383550507052e+01  7.9576793882170634e+01  7.4316950426506367e+01  8.5166232207768516e+01  7.1448058734158252e+01  6.9364200728718913e+01  5.6106736964304922e+01  3.9495743359555014e+01  4.1309166130535807e+01  5.9606657025984667e+01  7.8717749089114250e+01  6.0619786332023601e+01  3.5073149597909996e+01  3.9411698491095919e+01  8.0831828518097780e+01  4.5219932085568750e+01  3.1661408759934996e+01  6.7422120018833354e+01  7.5503504130462730e+01  6.4979478370920461e+01  5.1401852286408939e+01  8.5182576293489134e+01  3.9099456241367008e+01  5.0571828965567136e+01  6.0046354279074556e+01  6.5496250340751956e+01  5.6346887624328332e+01  4.7088847429923803e+01  4.3455116491965875e+01  5.7250854985787946e+01  4.8173499299015489e+01  4.7822666141838667e+01  4.4381625729214896e+01  4.9756938566646745e+01  8.4220465070653034e+01  7.8142840361365245e+01  5.2875815890847058e+01  8.2805684166802095e+01  7.5476892548766060e+01  7.4790575008090585e+01  8.0135044611451207e+01  6.2441949218924741e+01  5.8864363385212322e+01  6.6943161904093898e+01  7.2143597678630641e+01  5.8029974569732538e+01  7.8131229106341976e+01  5.1820841314424918e+01  6.5414639133285377e+01  3.2331639239344760e+01  5.0101349328985378e+01  6.8990139483766356e+01  7.7009457038309677e+01  6.5052324202332613e+01  7.0607367024686184e+01  6.2796451290207095e+01  7.1034419455707507e+01  3.6024733298940866e+01  5.4056170946476655e+01  5.3109362134678101e+01  7.9464059343429327e+01  6.7936178825004092e+01  3.7579719909729171e+01  7.8991894117128084e+01  6.3571239499610989e+01  8.4151098287633047e+01  3.3264051822859180e+01  8.4445537423194139e+01  8.4384276128839971e+01  5.5217836439364412e+01  5.0795081253404462e+01  8.4460616437959118e+01  8.5489086697994424e+01  8.2632167474578196e+01  8.4969406296837562e+01  7.1326062491625521e+01  3.6024406741977671e+01  8.0517941832939144e+01  7.5478286310302963e+01  5.6099471436835216e+01  5.0378657498692597e+01  4.6917747248066732e+01  8.5175138389465332e+01  8.4387977745923379e+01  5.8116624627212232e+01  8.5628310516330089e+01  8.3433414790923464e+01  8.3909637845677437e+01  8.5680045919906050e+01  5.9821743461408751e+01  4.8840407530987342e+01  7.0783854056657532e+01  3.4089504463636423e+01  4.8751902900132770e+01  3.6969505355507835e+01  6.8850346012326412e+01  8.6970060488876825e+01  6.6485064458989598e+01  7.2666882928644284e+01  8.3167709122947485e+01  6.0267430438880481e+01  3.1091604995541942e+01  7.1829673403590476e+01  3.9550873174589746e+01  5.2093132541612817e+01  8.4692751026482753e+01  8.2720877985205277e+01  6.1725118377524296e+01  8.6979543173507977e+01  4.3977543907791514e+01  8.5258501898159921e+01  6.3548051671761947e+01  3.2371295329810195e+01  3.6188414670943246e+01  3.7262466835959671e+01  7.2394066801062550e+01  8.1547236764130432e+01  8.0775287252815573e+01  6.8395279536111431e+01  8.4909333445163639e+01  5.9663717757021679e+01  4.8773374754133620e+01  4.8764834324668186e+01  3.2095271425007084e+01  8.4460739599914433e+01  8.4638002300975728e+01  8.4706862015451875e+01  7.5204962487176758e+01  8.1260728641819526e+01  8.4836695322714121e+01  8.3268007240674393e+01  6.6669356993327881e+01  8.7685242553248045e+01  8.7611155946345363e+01  6.1007213608256905e+01  3.5111684152155782e+01  6.0653551576487281e+01  8.1763847428746971e+01  5.5730493390112201e+01  6.4435810862380350e+01  8.7218504469392172e+01  6.1899713894639980e+01  7.3135784401413417e+01  4.0786838480186447e+01  5.6386075325267655e+01  5.5618427119445954e+01  5.6985572047551365e+01  8.5721312245676629e+01  5.0213532488505408e+01  5.1161287590269261e+01  4.9185523474388496e+01  5.1032482856613775e+01  4.7186927217301900e+01  3.2857257459359218e+01  3.0920209458091438e+01  5.2028452057010682e+01  5.4939132093834601e+01  7.5920719962212971e+01  7.5812992246132126e+01  8.7437684102055513e+01  6.6773747325269298e+01  6.4907110085408689e+01  6.0774551246429709e+01  6.0244042668666168e+01  6.0488714695762390e+01  6.0889330228230548e+01  6.0423135876679247e+01  6.0552054677941619e+01  6.2523835118489203e+01  6.0709428419106281e+01  6.1263686275403082e+01  6.4075509605921198e+01  6.2552207053935774e+01  5.8574191322106984e+01  6.0081702875872281e+01  4.4594394312125232e+01  4.6399860634608309e+01  4.4585935410300841e+01  4.2904825677060074e+01  4.3555818850193930e+01  4.1521481265405939e+01  4.2872334342764582e+01  4.2199835620560485e+01  3.8870582421750385e+01  3.7657189479666677e+01  3.3879103366221791e+01  3.4375195496156238e+01  3.4369147692177378e+01  3.5441220826761949e+01  3.4874360835741200e+01  3.6196862031686294e+01  3.6383375026313182e+01  3.5545512207987272e+01  3.6518725277240200e+01  3.6511528058310525e+01  3.7123904517090061e+01  3.6613198590455731e+01  3.7757840929329383e+01  4.0591418136838712e+01  3.8884923288079285e+01  4.8292259155858481e+01  4.6511416868487650e+01  4.7222573809441300e+01  5.0840895839916833e+01  6.8908011268629210e+01  6.7603971457923237e+01  6.6348155379219506e+01  6.8000545649139426e+01  7.3775599326996016e+01  7.6903239502877994e+01  7.5217510711562468e+01  7.6823868603023143e+01  5.4587356442901559e+01  5.0122474162633736e+01  5.1029900334133877e+01  5.3258867291353042e+01  3.7422658287312736e+01  3.9026908623186571e+01  3.7015746151163739e+01  3.7957296733687507e+01  3.7424306188270592e+01  3.6928143331244165e+01  5.5033739049491636e+01  5.7302202544297039e+01  5.2632118669556199e+01  5.5460284185010657e+01  5.1907097827348764e+01  7.5227662050675235e+01  7.2532902988076827e+01  6.1281314887760473e+01  6.0715439405551855e+01  6.3274539543012928e+01  5.9855262700809241e+01  6.3235514677504341e+01  6.2223872499183983e+01  6.3124378104915138e+01  6.6315183636785420e+01  6.4900405485051365e+01  3.8841471722729885e+01  4.0060316342468056e+01  4.1576639853953210e+01  4.0835573046570282e+01  4.4065198882983239e+01  4.3464533645156600e+01  4.7674540950377605e+01  4.0965865802677989e+01  4.1444332674793699e+01  4.5693495942159693e+01  4.6297825885903499e+01  7.3736126959449379e+01  7.7662939745055979e+01  7.5250493238612904e+01  7.8144561074149593e+01  8.0669758273150933e+01  7.0059276140536696e+01  6.6467066196690695e+01  6.9035810258036349e+01  6.7866001532234890e+01  5.3307037889496101e+01  5.6609192232639288e+01  5.6728821736174169e+01  5.3168106198092872e+01  7.2068457156968719e+01  6.9811941351338092e+01  6.9518459073697713e+01  6.7686812815680199e+01  3.5091804840550608e+01  3.3958721217052371e+01  6.1598865710962720e+01  6.0723171768282342e+01  5.9571044425306418e+01  7.1751973773942126e+01  6.9812404762017749e+01  7.3304370926140507e+01  7.0016122018043404e+01  5.4243088277768834e+01  5.0310846936144088e+01  5.1034697032246079e+01  5.2578243757139610e+01  5.0742703926106088e+01  5.2421294800492944e+01  3.7732933816554429e+01  3.6667058862880616e+01  3.7978395914285507e+01  3.6795261794362581e+01  3.7242404029239751e+01  3.7266275961310122e+01  4.6483030195607149e+01  4.9546802930615833e+01  4.8628195317110567e+01  4.9622125270708878e+01  4.1476983249525759e+01  4.6681196809987817e+01  4.6562606051181632e+01  4.7887203019545119e+01  4.2131014922238691e+01  4.4598502369558126e+01  5.7733350355455784e+01  5.8916219094988762e+01  5.6698293972545876e+01  5.6673516924104995e+01  4.1038504966011743e+01  4.4370548479160306e+01  4.0655386628813339e+01  4.5150031153694741e+01  3.7911971063219653e+01  3.4722898056959735e+01  3.7894677386285657e+01  3.6330402271116263e+01  3.6314755863965040e+01  3.5438455812127657e+01  3.7076430423667048e+01  6.5575937870113350e+01  6.4111120473439371e+01  6.7039519090851883e+01  6.6236201691764478e+01  7.0167153860840259e+01  4.8851426205978903e+01  4.9392237515441408e+01  7.0576056281076745e+01  6.3411288812053968e+01  6.0004540367357620e+01  5.9409459193954959e+01  6.2430686224201509e+01  6.9710787831765444e+01  6.7633415696513381e+01  6.3547075594569058e+01  6.3386070567525920e+01  5.7514516745222210e+01  5.2700686284144737e+01  3.9658286181918172e+01  3.8864123261073026e+01  3.7915288700423943e+01  5.9074191144571358e+01  6.1306438349696407e+01  7.7003566212456434e+01  7.8796310038269340e+01  7.2816847060833894e+01  7.6207876682593621e+01  7.3049274312757731e+01  7.3448293422807438e+01  6.8624174535939247e+01  6.7712340309595930e+01  5.6664733415674483e+01  3.8461495430737692e+01  5.8476820091009785e+01  5.8742596477036287e+01  3.5247671660982114e+01  3.6502130029940048e+01  3.5191214657566313e+01  4.2499303062397502e+01  4.4871997006993531e+01  5.4096802966837146e+01  5.0505625532545992e+01  5.1337619499690526e+01  5.0340897814539574e+01  5.9761342944927236e+01  6.0079151310393414e+01  6.0548910832398015e+01  6.0760559683302532e+01  6.5059669262393911e+01  6.4505143833323999e+01  5.4888786245895275e+01  5.0031816087714354e+01  4.9051198492398896e+01  5.0708855836628906e+01  4.8913601108015456e+01  4.5801868850713667e+01  4.7026954967820977e+01  5.5694270785055835e+01  5.2516675706123046e+01  7.6396023027124457e+01  5.4771429322291489e+01  5.1737038360209013e+01  6.3828533592622662e+01  6.6876227178762136e+01  6.8941478580877572e+01  6.7306841675553230e+01  3.7279108582991512e+01  3.4038382597973296e+01  3.6765760939629828e+01  6.0068237287541791e+01  3.6307472664026754e+01  6.0806785680437265e+01  4.1893888225051192e+01  3.8105191611304519e+01  6.1450843842053708e+01  4.9549638292756370e+01  6.8491376613741764e+01  3.7319085186196361e+01  3.7654774673480787e+01  3.6972414799730750e+01  3.7161997562500076e+01  3.6895103812887172e+01  6.2748979503648272e+01  4.4085402009390144e+01  4.6048402654049568e+01  4.5237915255036782e+01  7.6406618939851668e+01  5.9132367754516650e+01  5.4448658220565882e+01  5.4266669173219832e+01  5.4904792360609918e+01  3.4979706071497802e+01  7.0060173237025467e+01  7.0603707996131135e+01  3.7680022140992818e+01  3.7293629479345789e+01  4.7951767122782712e+01  4.8652832792535591e+01  4.3320530373093547e+01  5.7660924523447299e+01  6.1172364765754580e+01  6.2321167277374371e+01  6.0242224794777776e+01  6.2867175159380864e+01  3.9987351410631206e+01  3.8418134252589319e+01  3.8811222276732458e+01  3.8428833110180008e+01  7.0001596309264329e+01  3.8654215741872783e+01  4.0158880604379583e+01  4.0925247205730848e+01  5.1934328654339197e+01  5.2284674114260611e+01  5.2617698159583128e+01  5.0876291386149241e+01  4.0293928860651441e+01  3.8336766295273272e+01  3.9481887883429565e+01  5.0175163472344337e+01  7.4256086821767369e+01  7.4988761503214491e+01  7.5835596752207820e+01  6.2295775968562907e+01  6.7623098496454674e+01  5.3156685043193136e+01  5.0591130129647134e+01  4.9628496810475681e+01  5.1025282518807124e+01  6.6016129719556631e+01  6.2492562538624419e+01  6.3237922778838353e+01  3.6882843501516142e+01  3.6601597427008080e+01  3.6205391607209783e+01  5.3081895403711755e+01  5.5493563441844074e+01  5.5582643545953850e+01  5.2669013274559852e+01  6.7489617242455409e+01  3.6384225104609349e+01  3.6902875129452930e+01  3.6728832541425085e+01  6.0667697101207494e+01  6.0385544911073815e+01  6.0467760145590042e+01  4.3112312844635547e+01  4.4262019400645293e+01  4.4850033415742821e+01  3.7489163473913337e+01  3.5359201385136224e+01  3.5842180566927226e+01  6.1483195354137393e+01  6.2867663077993519e+01  6.2084144338843188e+01  6.1271748175903276e+01  6.1298835815982962e+01  6.1642869863579079e+01  6.0998097720698475e+01  4.5112335634670018e+01  3.5924683393474737e+01  4.8981656443962329e+01  6.9410565454793982e+01  5.1997244254287764e+01  5.1451052630384872e+01  3.7157600737505398e+01  3.8015374921362614e+01  3.8107970439620608e+01  3.9225865792015043e+01  3.8665079301302271e+01  3.7569743127000187e+01  5.2247609929336988e+01  5.1503778894371024e+01  5.1179926502561770e+01  6.2219240856752755e+01  6.3002496526340195e+01  3.8100251334691883e+01  3.8771265779983409e+01  4.2224246581819187e+01  4.2511029063664260e+01  4.7103977642677869e+01  4.0925369052501296e+01  4.1017841910320044e+01  4.0419771359845576e+01  4.7973931108736259e+01  7.6096650298512685e+01  5.3684407633870691e+01  5.5318301554545201e+01  5.3902486625076342e+01  6.8499504470900121e+01  6.9084297669038492e+01  6.7920505033826757e+01  5.1741918240589719e+01  5.3685018625712281e+01  5.2041925819436017e+01  4.5167974061063127e+01  5.6938906211167335e+01  5.5579784977137415e+01  3.8781328400647894e+01  3.7918318305042810e+01  6.6432295564937135e+01  6.6280310191781751e+01  6.7044323646888415e+01  3.8294082695242402e+01  3.6451315241830919e+01  </DataArray> 
</PointData> 
</Piece>
</UnstructuredGrid>
</VTKFile>