<?xml version="1.0"?>
<VTKFile type="UnstructuredGrid"  version="0.1"  >
<UnstructuredGrid>
<Piece  NumberOfPoints="784" NumberOfCells="1320">
<Points>
<DataArray  type="Float64"  NumberOfComponents="3"  format="ascii">266913.131276 586512.314988 0  266738.13716 587762.325998 0  266363.132677 589012.328643 0  266175.641078 590169.601714 0  265666.575631 591040.7699119999 0  264875.64001 591687.766419 0  264900.636161 591845.049083 0  266088.14152 592012.3229499999 0  265561.959259 592661.17101 0  264288.136855 593037.368683 0  263865.194033 593999.8486949999 0  263850.641856 593236.729596 0  263625.634872 592756.525286 0  262689.574249 593299.848918 0  262475.636737 594003.0907310001 0  261934.554452 594340.929792 0  261725.631329 594932.094409 0  261729.256443 595728.498809 0  262138.136044 595012.330523 0  262288.141035 596262.333669 0  261488.994028 597511.480605 0  261234.15567 598316.338928 0  260815.635063 599014.863821 0  261400.643658 599389.7367680001 0  261322.963374 600022.185065 0  261119.455248 600931.061306 0  261607.436504 601293.0629359999 0  260807.446929 602089.899812 0  260025.642878 602988.868697 0  259613.135827 603937.3854499999 0  259050.643123 604100.987861 0  258411.880065 603988.6335979999 0  257764.357469 604449.872569 0  257971.239668 605320.429125 0  258041.396867 605740.635381 0  257188.143339 606987.394312 0  256038.141198 608112.3554550001 0  254788.141633 609087.4026939999 0  253588.140656 609812.362881 0  252338.135706 609737.4048949999 0  251088.138116 609787.404055 0  249963.12851 610287.399466 0  248613.130524 610462.365857 0  247363.132198 610687.407659 0  246113.130532 610837.411551 0  245832.347438 610918.209918 0  245016.946433 610958.5639439999 0  244313.129646 610762.372259 0  244400.622144 611378.093316 0  243939.669208 612460.8930899999 0  242960.649733 611984.892792 0  242170.381438 611919.647351 0  241888.122919 611112.375656 0  241393.380757 610467.6456149999 0  240594.157528 611306.369822 0  240525.621947 610804.648112 0  240363.123632 610512.3745050001 0  239113.123247 610262.374278 0  239813.12126 609037.412459 0  240588.122952 607812.368199 0  241013.119545 606625.9534560001 0  241454.373249 605724.888025 0  242238.120107 604687.3993 0  243088.121248 603462.362766 0  242860.319451 603007.3932640001 0  241563.116617 603812.361344 0  241778.400913 604327.642217 0  242059.837234 604824.879102 0  241475.620201 604923.2402390001 0  241462.182234 605449.881372 0  240906.219606 605674.888222 0  240241.856192 606891.125066 0  239891.734044 607841.012479 0  239048.653431 608724.889805 0  238118.054545 608974.895967 0  238888.111029 607337.406468 0  239738.119992 606212.362729 0  240288.12044 605687.4075229999 0  240380.212307 604729.521696 0  239347.309632 604603.204501 0  238888.112036 604387.408787 0  237913.11173 604687.401386 0  236784.172023 604499.882783 0  236883.408793 603717.08334 0  236154.933927 603595.565605 0  235688.103943 602912.369264 0  235763.108033 601662.366516 0  236363.110805 600412.35884 0  236738.107995 599162.356577 0  236525.607944 598482.2412899999 0  236138.109208 599362.357613 0  235725.063048 600325.4466510001 0  235091.948926 601408.5220979999 0  235188.10921 600312.366344 0  234375.602405 600833.9674270001 0  234663.109308 599912.358011 0  234138.105122 600062.365644 0  233955.307245 599029.561063 0  233338.103791 598387.401556 0  233988.09795 597862.356384 0  235138.101489 596637.3947750001 0  235563.1039 595387.392428 0  236513.103639 594212.356312 0  237163.10684 592987.3929869999 0  238313.103031 591862.3515540001 0  239513.107028 590812.3512640001 0  240638.102135 589787.387271 0  241463.109549 588587.378486 0  242294.489816 587443.735215 0  242913.101099 586512.341804 0  243544.066915 585474.859604 0  243040.448415 585184.975583 0  242438.10214 585337.38015 0  241313.102353 586562.339499 0  240538.107104 587787.382449 0  240114.641085 588588.939407 0  239388.100256 589437.382238 0  238188.104456 590512.346358 0  236938.100507 591362.349798 0  235813.10453 592537.396388 0  234864.502938 593178.7753880001 0  234463.097651 592862.357267 0  235113.0965 591662.3545979999 0  235713.101522 590412.346099 0  235777.688431 589976.7582779999 0  234943.583145 590706.265132 0  234462.482256 591490.2841159999 0  233801.497784 592112.940187 0  233388.099101 591787.394208 0  234013.093099 590437.393065 0  234776.217248 587148.7548100001 0  235163.093726 586562.3486189999 0  235313.098918 585483.229012 0  235250.59732 584662.298153 0  235588.093896 583337.379493 0  236329.432041 582199.858992 0  237188.096234 581462.3349939999 0  237463.088521 580212.335511 0  238350.592558 579057.652616 0  238591.415797 578574.847681 0  238313.094106 577612.328905 0  239229.696732 577695.769664 0  240195.161018 577513.008613 0  240614.996733 577149.8518770001 0  240663.091715 577412.332622 0  240288.092486 578662.334085 0  239942.357258 579508.095811 0  240438.100019 580212.3334220001 0  241338.095553 580387.375355 0  241238.099828 579137.369157 0  241788.097003 577887.370889 0  241983.554649 577241.9220939999 0  242054.178239 576927.8105029999 0  242588.100699 575737.366175 0  243149.324833 574898.583978 0  243695.278626 573919.517981 0  244268.494418 573724.8454239999 0  244995.134063 573930.2767810001 0  245417.314363 573391.601898 0  243450.599125 571859.479773 0  245776.797908 572599.8353060001 0  246779.639852 572973.285167 0  248034.741935 573186.082054 0  249413.10651 573162.3205520001 0  250496.922226 573271.1521899999 0  251613.105126 573237.3551319999 0  252421.824577 572846.032906 0  253256.245022 572580.4733130001 0  253739.471933 571960.9547369999 0  254174.511864 572149.8346569999 0  254484.944333 571684.194807 0  254384.108649 570891.346712 0  254344.002752 570218.26407 0  255025.609604 570829.0294979999 0  255715.005913 570489.264586 0  256218.846343 570774.828355 0  256834.349083 570508.5908 0  257390.092515 570014.308325 0  257624.431042 568493.478911 0  259355.811717 569380.021819 0  260033.372814 569617.066669 0  262679.741751 570320.699974 0  263289.115756 569524.817815 0  263463.114338 570512.301061 0  264638.198419 570687.3443539999 0  265058.220065 571334.378467 0  265447.561421 572077.90485 0  265488.125257 573137.3446020001 0  265131.937715 573963.293593 0  265432.389648 575093.068786 0  265638.122314 576338.029955 0  265750.630817 577371.8281319999 0  265738.570663 578561.9098850001 0  265875.630866 579139.630549 0  266213.129247 579862.311842 0  266563.130472 581112.314509 0  266238.135356 582362.310259 0  265938.12863 583612.320897 0  265738.131342 584762.3210189999 0  266875.638633 585365.358768 0  264018.7239399826 593650.4646671159 0  262236.3944351029 595831.1252656333 0  241846.246678 605206.1436625 0  240200.622106 608424.8903290001 0  240943.4862974102 610939.7757535663 0  236550.6094 599787.3577085 0  238528.1212051503 608102.9081793013 0  244413.4891967989 572609.5960859474 0  236382.0474488751 598808.3067022427 0  235369.601910944 600933.5380148316 0  235413.099011 591037.3503485 0  235446.2251831186 590266.6553871984 0  240475.5921005 578037.3333535 0  240413.173949154 577324.4280286073 0  240574.037899 606283.0066440001 0  263857.9179445 593618.2891454998 0  264153.4303974913 593343.916675058 0  242042.1833925 604946.7714812499 0  241650.3099635 605465.51584375 0  244613.6985165 572229.6575395 0  236631.8579695 598822.2989335 0  235140.029068 600860.444221 0  241767.7287175 604874.0596705 0  242140.15174975 604817.0853906251 0  234781.8558075 600573.1668855001 0  242091.167571125 604881.9284359375 0  234519.3558565 600373.162719 0  254604.8337712102 583989.0014118921 0  250699.5846056537 594617.3297041012 0  250540.4796469513 602258.2940568649 0  248483.7490186612 580334.7345534252 0  258549.2190328319 577893.951823392 0  257067.0067473103 590016.5327808241 0  243285.0921999099 596333.923437875 0  248333.1386145258 589098.0389905117 0  256142.8445072741 595883.3911551933 0  260245.1368072523 583315.2785712298 0  253472.3380211276 578932.2908163272 0  246432.3347504817 599884.5019511909 0  261555.9240922556 588041.186709004 0  247293.1100123104 605823.8307887657 0  246458.2798550911 593168.8646574575 0  252840.0183145193 588226.5564648228 0  249828.2874404451 584740.7888937403 0  255409.5660975206 600458.8956828594 0  260819.9733392385 574219.403683011 0  252584.2262054711 605722.6603825617 0  254049.8830611471 592547.4852571967 0  250015.4356193061 598425.2225922942 0  245872.072249477 577604.9761853142 0  262002.1583249522 579753.4663046852 0  257732.6630933878 586227.970805314 0  250242.5556457866 577017.3316409125 0  244921.6453001869 581816.6358421432 0  256520.3890639471 580904.824006648 0  240779.0970645865 599524.6679555867 0  257100.1829219198 574459.5922545703 0  239912.2630002034 595231.1172704464 0  244703.0875078634 590068.6945953515 0  242549.5490268674 592874.3693043783 0  251586.0465921376 581796.2215047925 0  246643.189997516 596527.447801719 0  251049.7658069622 591057.6752245198 0  253014.5731561695 596998.6601086652 0  238680.2197353724 584542.2309791476 0  259715.365803504 591937.1938619445 0  254097.157218761 575731.4494927844 0  246806.6408589328 586139.0877599345 0  246136.1179750556 602959.471719323 0  253520.7033332401 602835.180253843 0  244125.4295793909 607538.9817227355 0  252546.8895354472 599881.3279113505 0  258289.0983523553 600397.640191779 0  247518.7952199645 583037.3718217331 0  263140.3959879661 582529.2228421422 0  262894.8586894067 585442.3590432997 0  256968.6320599076 593040.7691844478 0  243573.0187527719 600218.2795730785 0  258888.5766127351 595139.7745218446 0  262588.7569809347 576734.8569237856 0  259318.4257992262 580601.2540325444 0  249963.3812725965 607065.7205847671 0  257494.5307999607 583482.5893534871 0  258906.4757205145 572278.8089438241 0  237751.446593475 587300.5805003279 0  255142.4708720699 604956.7580261135 0  258485.4978753244 597756.9250383095 0  255516.7820591553 587791.39641967 0  239758.4692108706 601926.8203218657 0  255873.0092222999 577739.5085867504
[...]
<PointData  Scalars="f_49376-1"> 
<DataArray  type="Float64"  Name="f_49376-1"  format="ascii">4.1442395014530788e+01  4.2739640967194461e+01  4.4711085636619565e+01  4.6508139086746851e+01  4.7841957200962106e+01  4.9891734979601573e+01  5.0550162506863352e+01  5.0996306116053020e+01  5.1032611267328178e+01  5.1626781885484974e+01  5.2007015916079503e+01  5.1853758568630816e+01  5.2054223679664531e+01  5.4586516527283713e+01  5.6023590945991806e+01  5.7263683452758535e+01  5.8782632528979157e+01  6.0279284439968258e+01  6.0248972877009209e+01  6.0676748153230214e+01  6.2798757121901218e+01  6.4505343807446863e+01  6.6493846697109831e+01  6.7514880751825288e+01  6.8054293590074124e+01  6.9329371401554241e+01  6.9695203611148926e+01  7.0395680784364004e+01  7.1703436487634178e+01  7.2485094567756548e+01  7.2670463622108386e+01  7.3132499735214566e+01  7.4288445877860042e+01  7.5216071704900074e+01  7.5392043332657096e+01  7.6295188510622268e+01  7.7537525531618314e+01  7.8842469973668756e+01  7.9771441987269810e+01  8.0572965770476372e+01  8.1771473201771116e+01  8.2900571791323046e+01  8.3912903143252450e+01  8.4801381950599463e+01  8.5590729902543146e+01  8.5756908587397334e+01  8.6184816769045653e+01  8.6734029343353711e+01  8.7160118126792185e+01  8.7357025647849795e+01  8.7395869432549134e+01  8.7433939589039554e+01  8.7420024549054730e+01  8.7503865566413197e+01  8.7707139285732325e+01  8.7691456844551027e+01  8.7694475554667818e+01  8.7778162346033653e+01  8.7557129202862257e+01  8.6849864152789934e+01  8.6038010295575688e+01  8.5366001618312140e+01  8.4285423324010850e+01  8.2544497792186547e+01  8.2360722168130209e+01  8.4576614507222928e+01  8.5149843719452591e+01  8.5281257759405591e+01  8.5430752591674676e+01  8.5643317832749091e+01  8.5927775780774709e+01  8.6965560126226109e+01  8.7352912283585937e+01  8.7569122687190998e+01  8.7617389061137260e+01  8.7379299482705335e+01  8.6801350413608660e+01  8.6212054664608331e+01  8.5582220046956024e+01  8.5924765818533942e+01  8.6218033084300160e+01  8.6641384653642078e+01  8.6770612545848095e+01  8.6758531757546891e+01  8.6802509315973467e+01  8.6771827749797140e+01  8.6481947755405841e+01  8.5571756609225119e+01  8.4099165761250774e+01  8.3919032405308144e+01  8.5380615023452791e+01  8.6015255595462008e+01  8.6210359242228421e+01  8.6058897169334074e+01  8.6141874314683079e+01  8.5984099332457745e+01  8.5966023703531164e+01  8.5756268995320738e+01  8.5661683661418309e+01  8.5377735903604972e+01  8.3138575799761583e+01  8.0789493594139984e+01  7.7772575629107223e+01  7.4889919943632677e+01  7.2143763093834835e+01  6.9828374953510902e+01  6.7964219810644650e+01  6.6209654064020128e+01  6.4420996888974571e+01  6.2786538419631711e+01  6.0842713376893670e+01  6.0000074641149972e+01  6.0364449529777140e+01  6.3598514416195002e+01  6.6095088560900734e+01  6.7077074129896275e+01  6.8070226504045678e+01  6.9777717292096611e+01  7.2026421879233695e+01  7.4525907602314064e+01  7.5221847564747335e+01  7.5229644491694643e+01  7.4179028082858594e+01  7.2072526962419929e+01  7.1665714807947353e+01  7.3580875127339766e+01  7.4868524653158701e+01  7.5310483343372226e+01  7.5314711754511521e+01  7.3940393568790626e+01  6.9430144970149286e+01  6.8713441673317220e+01  6.7631923599475797e+01  6.7037156283668736e+01  6.6134147171321814e+01  6.5029514270860517e+01  6.3686968207448238e+01  6.2376195126846277e+01  6.1235625517749547e+01  6.0758350857234845e+01  6.0469339499148944e+01  6.0387419813516864e+01  6.0122484620697342e+01  6.0041398411479904e+01  6.0051091399826873e+01  6.0437936448579784e+01  6.1038478311184079e+01  6.1137828159180557e+01  5.9988538754086015e+01  5.8529147032988099e+01  5.7315329443138367e+01  5.6572613973483627e+01  5.6246683617998414e+01  5.4780534586339527e+01  5.3471413479709121e+01  5.2290839844799081e+01  5.1919388107365712e+01  5.0780604152167683e+01  4.9312128649476655e+01  4.9289329613840394e+01  4.8879560688355333e+01  4.8059240179996543e+01  4.6057523548789590e+01  4.3698220807054248e+01  4.2236657191634770e+01  4.0674925345467244e+01  3.9386920773701334e+01  3.8147986478579334e+01  3.7440144299268241e+01  3.6990830590676396e+01  3.6020153622635988e+01  3.5445426950620266e+01  3.5378172081619958e+01  3.5288634209264004e+01  3.4810098258196980e+01  3.4418851791644109e+01  3.4307577414412229e+01  3.7385427550809290e+01  4.2752008720525481e+01  3.7239148876378110e+01  3.4858411521162068e+01  3.3020843116716904e+01  3.3219626766238783e+01  3.3164073858648379e+01  3.2895224561979674e+01  3.2560635262724226e+01  3.2245745740360121e+01  3.2273004191275945e+01  3.2744044689989209e+01  3.3509571957806358e+01  3.4294804022250979e+01  3.5039664590106483e+01  3.5989229477827692e+01  3.6501075390410918e+01  3.7152565758780661e+01  3.8461971106352102e+01  4.0108644162331181e+01  4.1068138629167990e+01  4.0989035888689649e+01  4.0939172443188838e+01  5.1965873481848888e+01  6.0442036023900116e+01  8.4880910069237501e+01  8.7268638041490917e+01  8.7681517000945192e+01  8.4865236449367899e+01  8.7550002664128286e+01  4.9157680509973638e+01  8.4656199578687421e+01  8.6172354900358471e+01  7.3155441433468667e+01  7.2391516109002836e+01  6.0180190634808710e+01  6.0058117452203113e+01  8.6521157692843929e+01  5.1965900258827808e+01  5.1866407808883466e+01  8.4596821538695380e+01  8.5140601186232885e+01  4.9156470695382062e+01  8.3787223176111439e+01  8.6172430289625638e+01  8.5306701695496969e+01  8.4445323997664104e+01  8.6111343330112049e+01  8.4521929641513950e+01  8.6110634451456676e+01  4.8515774260925753e+01  6.6174787686740558e+01  7.5438488545030822e+01  5.0327136353506909e+01  3.5298315874158128e+01  5.1377165635272405e+01  7.4914827785002970e+01  6.0289036993557076e+01  6.4195824956039061e+01  4.1885155759475836e+01  4.1502389279025515e+01  7.4724143807894833e+01  4.6679944069339498e+01  8.1828161344987322e+01  6.7018253648926617e+01  5.2355578512184749e+01  5.6414133762312218e+01  6.7950844972134320e+01  3.3684441813636205e+01  7.7873413762101521e+01  6.1176343898453112e+01  6.9677335834790114e+01  5.1719419477167214e+01  3.5994585782699133e+01  4.5568264729956404e+01  4.4223402068270438e+01  5.6912471048482757e+01  4.2608587229156676e+01  8.1045522002288337e+01  3.6499524233459674e+01  7.5686202236751981e+01  6.3277311460405670e+01  6.9905296350864120e+01  5.0569166557562440e+01  7.2217841885486976e+01  5.9353417302466440e+01  6.7079744012590837e+01  6.4660030819630222e+01  5.5552525368845835e+01  3.7725849953935068e+01  5.9209944206605165e+01  7.9387624251049743e+01  7.4287667087246675e+01  8.5279257781601288e+01  7.0392446919245899e+01  6.9221964403971157e+01  5.5923201629457182e+01  3.9145849876343362e+01  4.1835311453165495e+01  5.8840123691982235e+01  7.8948132062124003e+01  6.0977505011127647e+01  3.5091186779861879e+01  3.8572774552273827e+01  8.0985120310341273e+01  4.4760896398646537e+01  3.2406928718766835e+01  6.7706763702727798e+01  7.5736254904888455e+01  6.5138268537711070e+01  4.6160798463063635e+01  8.4811639712770173e+01  3.7498788158476785e+01  5.0905545412491527e+01  5.9542914289902718e+01  6.4813265669611539e+01  5.6131952948851797e+01  4.6803690005123400e+01  4.3836809367098809e+01  5.4821471806208422e+01  4.7334064088023567e+01  4.7448673396461615e+01  4.4660389205405089e+01  4.8746086947664338e+01  8.4324945842642890e+01  7.8372138917836864e+01  5.2766408518618405e+01  8.2920507320798222e+01  7.5588199562963993e+01  7.2773724816989031e+01  8.0386898083326088e+01  6.2483806088940277e+01  5.8930885580708704e+01  6.5220775169548432e+01  7.2038567516157755e+01  5.7484009822709623e+01  7.7894540660817370e+01  4.8624156285445153e+01  6.5302516576452277e+01  3.2650474707342632e+01  4.8165143354032523e+01  6.8538328599556934e+01  7.7398847442137637e+01  6.2269461123986289e+01  7.0738184361149251e+01  6.1112044677640476e+01  7.1637501885705987e+01  3.5147992489641361e+01  5.1523565584860364e+01  5.3229357278446585e+01  7.9602033828719286e+01  6.6591786609899700e+01  3.7212991096327720e+01  7.9156623640401222e+01  6.3184575661066511e+01  8.3960651200262959e+01  3.3452991171497040e+01  8.4570464036480374e+01  8.4494006119367683e+01  5.5154453546048479e+01  5.0898123669754455e+01  8.4563413768748589e+01  8.5534202671335194e+01  8.2714845058478204e+01  8.4789016043672504e+01  7.1343239508095493e+01  3.6076979399505774e+01  8.0539683678620108e+01  7.5723796283751199e+01  5.6043334823925903e+01  5.0481823303459436e+01  4.7349813984721877e+01  8.5291667148730397e+01  8.4485452906117629e+01  5.8404934972792070e+01  8.5572105715431817e+01  8.3492954167437588e+01  8.3992169303974208e+01  8.5671214900357199e+01  5.9458334811399197e+01  4.9025716456078115e+01  7.1125420889603703e+01  3.4274343545312185e+01  4.9095716363949357e+01  3.6477639519821075e+01  6.9126534039395807e+01  8.7052079550722041e+01  6.6588473306512796e+01  7.2562451657823075e+01  8.3170012798623958e+01  5.9476973956699695e+01  3.2801285608906859e+01  7.1874639743865032e+01  3.9074519518436915e+01  5.2358860011538113e+01  8.4571152502442388e+01  8.2624926084399576e+01  6.2011480427986314e+01  8.7055015958275035e+01  4.3209243131205618e+01  8.5099867989874753e+01  6.3839819984819215e+01  3.2581897762124512e+01  3.6272327449939660e+01  3.7123600962145453e+01  7.2277985703834261e+01  8.1619899507233384e+01  8.0975254865600533e+01  6.8555759317486675e+01  8.5020688331433178e+01  6.0068185040236280e+01  4.9063479621934157e+01  4.9050304903790455e+01  3.3482873517380156e+01  8.4559986182541891e+01  8.4741905037754066e+01  8.4813841941319325e+01  7.5455292443251253e+01  8.1365993424929457e+01  8.4851409146623766e+01  8.3299351374356235e+01  6.6866246237344839e+01  8.7634430732723715e+01  8.7585227794464743e+01  6.1025474529827925e+01  3.5065038050378014e+01  6.0988303793896215e+01  8.1838690403172876e+01  5.5953053020161938e+01  6.4542023295461533e+01  8.7233675443433697e+01  6.1349808349660954e+01  7.3204846624310079e+01  4.0873784612126002e+01  5.6301576465328075e+01  5.5539156001486184e+01  5.6922491073615241e+01  8.5554438096766120e+01  5.0326917146185018e+01  5.1173222276397382e+01  4.9387198841055103e+01  5.1042975439083037e+01  4.7415235684363431e+01  3.2841306748235766e+01  3.1570060070817462e+01  5.2253893721412801e+01  5.4926415462999806e+01  7.5001591496626673e+01  7.4933656554964045e+01  8.7449936502189843e+01  6.6736187167161518e+01  6.4334496001694774e+01  6.0329246321090082e+01  5.9996588948656338e+01  5.9994230600048340e+01  6.0033344515678714e+01  5.9840852752765826e+01  5.9726741085010424e+01  6.1798039845473156e+01  5.9841443290495803e+01  6.0467993996194181e+01  6.3763247674231394e+01  6.1936688394782941e+01  5.8493856110000564e+01  5.9987634757697975e+01  4.4767871446361397e+01  4.6354476756790461e+01  4.4435325925570687e+01  4.2955003697478404e+01  4.3310480841203720e+01  4.1498088737406455e+01  4.2558510296497701e+01  4.1889984142446586e+01  3.8780064855518802e+01  3.7629372736140056e+01  3.4139209798010754e+01  3.4660191050422064e+01  3.4587836903879264e+01  3.5494867009795300e+01  3.4986161697987050e+01  3.6247134634763555e+01  3.6228570017186385e+01  3.5461721217933061e+01  3.6834481635074461e+01  3.6436972861389428e+01  3.7256458123066047e+01  3.6716123764409247e+01  3.7968321215144591e+01  4.0070504671134621e+01  3.8804823035662494e+01  4.5190687768530722e+01  4.6249697913476062e+01  4.6133697882686164e+01  4.8866762103371620e+01  6.6901632505323022e+01  6.6505864839520171e+01  6.5772321397723076e+01  6.7145455484253247e+01  7.3396322249753283e+01  7.6989588013851815e+01  7.4219411317239960e+01  7.6506919834746327e+01  5.3134161817259496e+01  4.9268800355418492e+01  4.8735733667748292e+01  5.0121753454940745e+01  3.6084267860334720e+01  3.7890478797759833e+01  3.6171526018027734e+01  3.6716685049925132e+01  3.5918454044242935e+01  3.5144402078362184e+01  5.4084711273120050e+01  5.5147209018409868e+01  4.8528632402646991e+01  5.2275232725305742e+01  4.9845674421914268e+01  7.5340359603192582e+01  7.2494731464884779e+01  5.9411282877310079e+01  5.9422641077645579e+01  6.1784471147913493e+01  5.9120978352814589e+01  6.1238983142458267e+01  5.9711834000775212e+01  6.3006880679376486e+01  6.5743108867186606e+01  6.4868111054107899e+01  3.7637318216616187e+01  3.9739168701252190e+01  4.1867422875644493e+01  4.0276256669566465e+01  4.2019302972519000e+01  4.2223284590341066e+01  4.6537386394890852e+01  3.8551942762795825e+01  3.9373621942717513e+01  4.4390707603569936e+01  4.4297455547938853e+01  7.1814024974957135e+01  7.6779748203399706e+01  7.3166456859629392e+01  7.7741751452107749e+01  8.0751944282023828e+01  7.0093577845227031e+01  6.4476163834800289e+01  6.8838759652713932e+01  6.6509970322258710e+01  4.8597255671348570e+01  5.3339989807411058e+01  5.5047924192221956e+01  4.9439511549814945e+01  7.1361772166128176e+01  6.8241148169060040e+01  6.8776087643392145e+01  6.5703287312611778e+01  3.5024692686884642e+01  3.4223498752785424e+01  6.0931735908121674e+01  5.9646337129254434e+01  5.8348808248444314e+01  7.0546544658414660e+01  6.8103499685874667e+01  7.1522753857971736e+01  6.8339807313819847e+01  5.3752545643240005e+01  4.9887732044400103e+01  4.9731698211097324e+01  5.1338484448517889e+01  5.0697772464390255e+01  5.2480643898853927e+01  3.6710527480607986e+01  3.6046501189101178e+01  3.6633081201396955e+01  3.5880428204160772e+01  3.6359079180075369e+01  3.6352167033101466e+01  4.5090570418504029e+01  4.5050624402149886e+01  4.6866893135665336e+01  4.4910587405124858e+01  3.9639385794513849e+01  4.5507954924277087e+01  4.5676587769520637e+01  4.6594185869928339e+01  4.0796430741449569e+01  4.3528996960713833e+01  5.6317720619437551e+01  5.8683468702342971e+01  5.6180733905858823e+01  5.4567130210268587e+01  4.0488981416018035e+01  4.4178716905087100e+01  3.9337275674814997e+01  4.4722833887367926e+01  3.7235655724658031e+01  3.4843124890584200e+01  3.7021002894236737e+01  3.5824110741613474e+01  3.6285901270472614e+01  3.5483346206255170e+01  3.6848449203417978e+01  6.2010337283863258e+01  6.2045507805453653e+01  6.4712452686186396e+01  6.5301805450142666e+01  7.0257901424751751e+01  4.8717607976923404e+01  4.9050026864775802e+01  7.0317735612513417e+01  6.1946196949936635e+01  5.8537400406881616e+01  5.7640985370224762e+01  6.1359745460655894e+01  6.8174393884589591e+01  6.6228744404064145e+01  6.3441132634798244e+01  6.3072043849445365e+01  5.7135346415436167e+01  5.2324208337638076e+01  3.7831746427591860e+01  3.8143319453346187e+01  3.7407824347438861e+01  5.8854271008341293e+01  5.9895176233626998e+01  7.5634545973848248e+01  7.8460803827355107e+01  7.2293398181510597e+01  7.6421526941328523e+01  7.2844757481919672e+01  7.2572303784866349e+01  6.6718652647601871e+01  6.6706057599108718e+01  5.3387397032694430e+01  3.7975045074192046e+01  5.6200964165435231e+01  5.8834470355861257e+01  3.5060323555710788e+01  3.5913302507528101e+01  3.5128197208625714e+01  4.2269681015092672e+01  4.4690898942217395e+01  5.0028112527391400e+01  4.6839138654177475e+01  4.6373464520668179e+01  5.0395973534454939e+01  5.9218506749635267e+01  5.9409496691416386e+01  6.0275556834860808e+01  6.0143015492900609e+01  6.3798239678774181e+01  6.3675450874514155e+01  5.3933524161485131e+01  5.0089761491374198e+01  4.7640968143234126e+01  5.0511797095573350e+01  4.7963922440988540e+01  4.5175348791528137e+01  4.6812837532782460e+01  5.5044647517925085e+01  5.1402615799515154e+01  7.5216397633454761e+01  5.2973283622459682e+01  4.9466752556058807e+01  6.0719127139858607e+01  6.3858516170353788e+01  6.8677219556457914e+01  6.6552482165583754e+01  3.6839708840080966e+01  3.4196056369830977e+01  3.6700525421217854e+01  5.9444750045308837e+01  3.5844753302844119e+01  6.0053525269529445e+01  4.1159610440979101e+01  3.7896492013438106e+01  6.1113996923447921e+01  4.6682661836769469e+01  6.6983751197842196e+01  3.5641316988018069e+01  3.6145374465950106e+01  3.5462376607185305e+01  3.5500752560308612e+01  3.5492210489103940e+01  6.0368532265731680e+01  4.1436749192234380e+01  4.4000146048273969e+01  4.2726598871426773e+01  7.4803082334574754e+01  5.6996912462043774e+01  5.0399731163847896e+01  5.0669487741391173e+01  5.2234214752076440e+01  3.4798004893382469e+01  6.8017863931588735e+01  6.8661348072426080e+01  3.6234530712880748e+01  3.6081834995788370e+01  4.4879932423879389e+01  4.4824053649838710e+01  4.1778002832293168e+01  5.5397832368242732e+01  5.9009285865301052e+01  6.0530948986262018e+01  5.8092039852860033e+01  6.1463213162632123e+01  3.8354357634320074e+01  3.7432602566559005e+01  3.7861392938471745e+01  3.7589423776616506e+01  6.8466202139099508e+01  3.7663653241213645e+01  3.9510066251837763e+01  4.0421469794254364e+01  4.7173342276058186e+01  4.7158595453983622e+01  4.7804802071651579e+01  4.6139957858522671e+01  3.8441839828246025e+01  3.7034726762051577e+01  3.7744047376803692e+01  4.7910398577003306e+01  7.2096159478983267e+01  7.2774170961400543e+01  7.3925902544952280e+01  6.2015034760815560e+01  6.5636295341088029e+01  5.0600330062256532e+01  4.8337018638708813e+01  4.7769722653146175e+01  4.8814088883268134e+01  6.2851403103577503e+01  6.0087566306500520e+01  6.0748070504766389e+01  3.5418258828647552e+01  3.5193375780414947e+01  3.5348699959859125e+01  5.1304518715332648e+01  5.2941842198642604e+01  5.1972101277825473e+01  5.0277309294549106e+01  6.5180724426086442e+01  3.6020209962144072e+01  3.6178550576910652e+01  3.6175365112655335e+01  5.9827036424259205e+01  5.9644711046922005e+01  5.9667928412227290e+01  4.2094289804109387e+01  4.3316081443270939e+01  4.4125049063770497e+01  3.7096961028054260e+01  3.5260478206583095e+01  3.5527444484541171e+01  6.0794272704184259e+01  6.2380378154910936e+01  6.1463099205349572e+01  6.0665970678963951e+01  6.0633944235872029e+01  6.1172043803078715e+01  6.0213317250971748e+01  4.4677343676800589e+01  3.5653408633940998e+01  4.5022781359521048e+01  6.7484986643334096e+01  4.9421788826902954e+01  4.8967540721558173e+01  3.5476757109740674e+01  3.6527574842983363e+01  3.6931429061037583e+01  3.8361835290510953e+01  3.7194008892747078e+01  3.6394857721138372e+01  4.8952919601981854e+01  4.7411256220804106e+01  4.8282078951230190e+01  6.0283793038470648e+01  6.0159762076463821e+01  3.6836348496058861e+01  3.7955976099579502e+01  3.9655440087364525e+01  4.0439298935611525e+01  4.5446790139622003e+01  3.8668670153154501e+01  3.9368539100865277e+01  3.8346017636754773e+01  4.6911287853444236e+01  7.4196498687201313e+01  4.9147947310767115e+01  5.1607932476456213e+01  5.1175161266019664e+01  6.6542065572074307e+01  6.7269090202972677e+01  6.5837126274554180e+01  5.0448639963889640e+01  5.2514549015988528e+01  5.0263807779581995e+01  4.4299319785146885e+01  5.3750940924969264e+01  5.4057361713766227e+01  3.7501176878094768e+01  3.7263908148454931e+01  6.3234977361293211e+01  6.2828523778749528e+01  6.4153313147037437e+01  3.7730533624711541e+01  3.5887438673370198e+01  </DataArray> 
</PointData> 
</Piece>
</UnstructuredGrid>
</VTKFile>