<?xml version="1.0"?>
<VTKFile type="UnstructuredGrid"  version="0.1"  >
<UnstructuredGrid>
<Piece  NumberOfPoints="784" NumberOfCells="1320">
<Points>
<DataArray  type="Float64"  NumberOfComponents="3"  format="ascii">266913.131276 586512.314988 0  266738.13716 587762.325998 0  266363.132677 589012.328643 0  266175.641078 590169.601714 0  265666.575631 591040.7699119999 0  264875.64001 591687.766419 0  264900.636161 591845.049083 0  266088.14152 592012.3229499999 0  265561.959259 592661.17101 0  264288.136855 593037.368683 0  263865.194033 593999.8486949999 0  263850.641856 593236.729596 0  263625.634872 592756.525286 0  262689.574249 593299.848918 0  262475.636737 594003.0907310001 0  261934.554452 594340.929792 0  261725.631329 594932.094409 0  261729.256443 595728.498809 0  262138.136044 595012.330523 0  262288.141035 596262.333669 0  261488.994028 597511.480605 0  261234.15567 598316.338928 0  260815.635063 599014.863821 0  261400.643658 599389.7367680001 0  261322.963374 600022.185065 0  261119.455248 600931.061306 0  261607.436504 601293.0629359999 0  260807.446929 602089.899812 0  260025.642878 602988.868697 0  259613.135827 603937.3854499999 0  259050.643123 604100.987861 0  258411.880065 603988.6335979999 0  257764.357469 604449.872569 0  257971.239668 605320.429125 0  258041.396867 605740.635381 0  257188.143339 606987.394312 0  256038.141198 608112.3554550001 0  254788.141633 609087.4026939999 0  253588.140656 609812.362881 0  252338.135706 609737.4048949999 0  251088.138116 609787.404055 0  249963.12851 610287.399466 0  248613.130524 610462.365857 0  247363.132198 610687.407659 0  246113.130532 610837.411551 0  245832.347438 610918.209918 0  245016.946433 610958.5639439999 0  244313.129646 610762.372259 0  244400.622144 611378.093316 0  243939.669208 612460.8930899999 0  242960.649733 611984.892792 0  242170.381438 611919.647351 0  241888.122919 611112.375656 0  241393.380757 610467.6456149999 0  240594.157528 611306.369822 0  240525.621947 610804.648112 0  240363.123632 610512.3745050001 0  239113.123247 610262.374278 0  239813.12126 609037.412459 0  240588.122952 607812.368199 0  241013.119545 606625.9534560001 0  241454.373249 605724.888025 0  242238.120107 604687.3993 0  243088.121248 603462.362766 0  242860.319451 603007.3932640001 0  241563.116617 603812.361344 0  241778.400913 604327.642217 0  242059.837234 604824.879102 0  241475.620201 604923.2402390001 0  241462.182234 605449.881372 0  240906.219606 605674.888222 0  240241.856192 606891.125066 0  239891.734044 607841.012479 0  239048.653431 608724.889805 0  238118.054545 608974.895967 0  238888.111029 607337.406468 0  239738.119992 606212.362729 0  240288.12044 605687.4075229999 0  240380.212307 604729.521696 0  239347.309632 604603.204501 0  238888.112036 604387.408787 0  237913.11173 604687.401386 0  236784.172023 604499.882783 0  236883.408793 603717.08334 0  236154.933927 603595.565605 0  235688.103943 602912.369264 0  235763.108033 601662.366516 0  236363.110805 600412.35884 0  236738.107995 599162.356577 0  236525.607944 598482.2412899999 0  236138.109208 599362.357613 0  235725.063048 600325.4466510001 0  235091.948926 601408.5220979999 0  235188.10921 600312.366344 0  234375.602405 600833.9674270001 0  234663.109308 599912.358011 0  234138.105122 600062.365644 0  233955.307245 599029.561063 0  233338.103791 598387.401556 0  233988.09795 597862.356384 0  235138.101489 596637.3947750001 0  235563.1039 595387.392428 0  236513.103639 594212.356312 0  237163.10684 592987.3929869999 0  238313.103031 591862.3515540001 0  239513.107028 590812.3512640001 0  240638.102135 589787.387271 0  241463.109549 588587.378486 0  242294.489816 587443.735215 0  242913.101099 586512.341804 0  243544.066915 585474.859604 0  243040.448415 585184.975583 0  242438.10214 585337.38015 0  241313.102353 586562.339499 0  240538.107104 587787.382449 0  240114.641085 588588.939407 0  239388.100256 589437.382238 0  238188.104456 590512.346358 0  236938.100507 591362.349798 0  235813.10453 592537.396388 0  234864.502938 593178.7753880001 0  234463.097651 592862.357267 0  235113.0965 591662.3545979999 0  235713.101522 590412.346099 0  235777.688431 589976.7582779999 0  234943.583145 590706.265132 0  234462.482256 591490.2841159999 0  233801.497784 592112.940187 0  233388.099101 591787.394208 0  234013.093099 590437.393065 0  234776.217248 587148.7548100001 0  235163.093726 586562.3486189999 0  235313.098918 585483.229012 0  235250.59732 584662.298153 0  235588.093896 583337.379493 0  236329.432041 582199.858992 0  237188.096234 581462.3349939999 0  237463.088521 580212.335511 0  238350.592558 579057.652616 0  238591.415797 578574.847681 0  238313.094106 577612.328905 0  239229.696732 577695.769664 0  240195.161018 577513.008613 0  240614.996733 577149.8518770001 0  240663.091715 577412.332622 0  240288.092486 578662.334085 0  239942.357258 579508.095811 0  240438.100019 580212.3334220001 0  241338.095553 580387.375355 0  241238.099828 579137.369157 0  241788.097003 577887.370889 0  241983.554649 577241.9220939999 0  242054.178239 576927.8105029999 0  242588.100699 575737.366175 0  243149.324833 574898.583978 0  243695.278626 573919.517981 0  244268.494418 573724.8454239999 0  244995.134063 573930.2767810001 0  245417.314363 573391.601898 0  243450.599125 571859.479773 0  245776.797908 572599.8353060001 0  246779.639852 572973.285167 0  248034.741935 573186.082054 0  249413.10651 573162.3205520001 0  250496.922226 573271.1521899999 0  251613.105126 573237.3551319999 0  252421.824577 572846.032906 0  253256.245022 572580.4733130001 0  253739.471933 571960.9547369999 0  254174.511864 572149.8346569999 0  254484.944333 571684.194807 0  254384.108649 570891.346712 0  254344.002752 570218.26407 0  255025.609604 570829.0294979999 0  255715.005913 570489.264586 0  256218.846343 570774.828355 0  256834.349083 570508.5908 0  257390.092515 570014.308325 0  257624.431042 568493.478911 0  259355.811717 569380.021819 0  260033.372814 569617.066669 0  262679.741751 570320.699974 0  263289.115756 569524.817815 0  263463.114338 570512.301061 0  264638.198419 570687.3443539999 0  265058.220065 571334.378467 0  265447.561421 572077.90485 0  265488.125257 573137.3446020001 0  265131.937715 573963.293593 0  265432.389648 575093.068786 0  265638.122314 576338.029955 0  265750.630817 577371.8281319999 0  265738.570663 578561.9098850001 0  265875.630866 579139.630549 0  266213.129247 579862.311842 0  266563.130472 581112.314509 0  266238.135356 582362.310259 0  265938.12863 583612.320897 0  265738.131342 584762.3210189999 0  266875.638633 585365.358768 0  264018.7239399826 593650.4646671159 0  262236.3944351029 595831.1252656333 0  241846.246678 605206.1436625 0  240200.622106 608424.8903290001 0  240943.4862974102 610939.7757535663 0  236550.6094 599787.3577085 0  238528.1212051503 608102.9081793013 0  244413.4891967989 572609.5960859474 0  236382.0474488751 598808.3067022427 0  235369.601910944 600933.5380148316 0  235413.099011 591037.3503485 0  235446.2251831186 590266.6553871984 0  240475.5921005 578037.3333535 0  240413.173949154 577324.4280286073 0  240574.037899 606283.0066440001 0  263857.9179445 593618.2891454998 0  264153.4303974913 593343.916675058 0  242042.1833925 604946.7714812499 0  241650.3099635 605465.51584375 0  244613.6985165 572229.6575395 0  236631.8579695 598822.2989335 0  235140.029068 600860.444221 0  241767.7287175 604874.0596705 0  242140.15174975 604817.0853906251 0  234781.8558075 600573.1668855001 0  242091.167571125 604881.9284359375 0  234519.3558565 600373.162719 0  254604.8337712102 583989.0014118921 0  250699.5846056537 594617.3297041012 0  250540.4796469513 602258.2940568649 0  248483.7490186612 580334.7345534252 0  258549.2190328319 577893.951823392 0  257067.0067473103 590016.5327808241 0  243285.0921999099 596333.923437875 0  248333.1386145258 589098.0389905117 0  256142.8445072741 595883.3911551933 0  260245.1368072523 583315.2785712298 0  253472.3380211276 578932.2908163272 0  246432.3347504817 599884.5019511909 0  261555.9240922556 588041.186709004 0  247293.1100123104 605823.8307887657 0  246458.2798550911 593168.8646574575 0  252840.0183145193 588226.5564648228 0  249828.2874404451 584740.7888937403 0  255409.5660975206 600458.8956828594 0  260819.9733392385 574219.403683011 0  252584.2262054711 605722.6603825617 0  254049.8830611471 592547.4852571967 0  250015.4356193061 598425.2225922942 0  245872.072249477 577604.9761853142 0  262002.1583249522 579753.4663046852 0  257732.6630933878 586227.970805314 0  250242.5556457866 577017.3316409125 0  244921.6453001869 581816.6358421432 0  256520.3890639471 580904.824006648 0  240779.0970645865 599524.6679555867 0  257100.1829219198 574459.5922545703 0  239912.2630002034 595231.1172704464 0  244703.0875078634 590068.6945953515 0  242549.5490268674 592874.3693043783 0  251586.0465921376 581796.2215047925 0  246643.189997516 596527.447801719 0  251049.7658069622 591057.6752245198 0  253014.5731561695 596998.6601086652 0  238680.2197353724 584542.2309791476 0  259715.365803504 591937.1938619445 0  254097.157218761 575731.4494927844 0  246806.6408589328 586139.0877599345 0  246136.1179750556 602959.471719323 0  253520.7033332401 602835.180253843 0  244125.4295793909 607538.9817227355 0  252546.8895354472 599881.3279113505 0  258289.0983523553 600397.640191779 0  247518.7952199645 583037.3718217331 0  263140.3959879661 582529.2228421422 0  262894.8586894067 585442.3590432997 0  256968.6320599076 593040.7691844478 0  243573.0187527719 600218.2795730785 0  258888.5766127351 595139.7745218446 0  262588.7569809347 576734.8569237856 0  259318.4257992262 580601.2540325444 0  249963.3812725965 607065.7205847671 0  257494.5307999607 583482.5893534871 0  258906.4757205145 572278.8089438241 0  237751.446593475 587300.5805003279 0  255142.4708720699 604956.7580261135 0  258485.4978753244 597756.9250383095 0  255516.7820591553 587791.39641967 0  239758.4692108706 601926.8203218657 0  255873.0092222999 577739.5085867504
[...]
<PointData  Scalars="f_24704-1"> 
<DataArray  type="Float64"  Name="f_24704-1"  format="ascii">4.1300827338148636e+01  4.2638821136377537e+01  4.4662149540049967e+01  4.6526578841244174e+01  4.7884355623223087e+01  4.9934499808324077e+01  5.0610286006213258e+01  5.1008275956167999e+01  5.1075113046199277e+01  5.1844207979576886e+01  5.2368513374902818e+01  5.2128129948344679e+01  5.2201694556437054e+01  5.4627335251395955e+01  5.6045191578449611e+01  5.7219218324618453e+01  5.8685152897118741e+01  6.0135990134831978e+01  6.0040758811843020e+01  6.0540212386354852e+01  6.2785429240363904e+01  6.4527877001467274e+01  6.6503289541854627e+01  6.7528855613939939e+01  6.8088161747376120e+01  6.9428228158573546e+01  6.9813461325888881e+01  7.0579713878624318e+01  7.1978135809271294e+01  7.2788805628388843e+01  7.2962379903529580e+01  7.3370124339735298e+01  7.4442795295015713e+01  7.5349730617579723e+01  7.5525020626330587e+01  7.6438188628809243e+01  7.7719643807674785e+01  7.9080263176874794e+01  8.0060869955016969e+01  8.0868085798543618e+01  8.2081918113986916e+01  8.3228420720175606e+01  8.4241621727966404e+01  8.5124175054770646e+01  8.5902549030517463e+01  8.6064832680641771e+01  8.6480676684673426e+01  8.7023327891232043e+01  8.7460775023487955e+01  8.7668218950078312e+01  8.7713342960181365e+01  8.7756192936485007e+01  8.7734792083359011e+01  8.7818959926848891e+01  8.8046856747847002e+01  8.8028721455490384e+01  8.8031626500790139e+01  8.8128003869860166e+01  8.7877169024097142e+01  8.7125419861360328e+01  8.6296694575620492e+01  8.5616363636914940e+01  8.4534785250763889e+01  8.2785710073849430e+01  8.2574968275076642e+01  8.4775078002165273e+01  8.5340519718013510e+01  8.5468927505439567e+01  8.5624116315853897e+01  8.5840576644811236e+01  8.6129397320118116e+01  8.7194924241688554e+01  8.7614503281433912e+01  8.7871232615842416e+01  8.7931625099279344e+01  8.7645587123752449e+01  8.7023004072567943e+01  8.6417691524485079e+01  8.5800653979529230e+01  8.6203082393266982e+01  8.6519817001428009e+01  8.6948251133292118e+01  8.7066929848789059e+01  8.7062413447869744e+01  8.7112015861414420e+01  8.7087923944175344e+01  8.6806067677942380e+01  8.5902924250118133e+01  8.4405456868662043e+01  8.4244946129096022e+01  8.5748526489457134e+01  8.6396530984446869e+01  8.6589855139883966e+01  8.6445438169089968e+01  8.6538522777891686e+01  8.6384127614249024e+01  8.6375540806876060e+01  8.6177517287155922e+01  8.6093282105530349e+01  8.5800804217486899e+01  8.3509462742536229e+01  8.1100652549374672e+01  7.7955000525002262e+01  7.4938433082602046e+01  7.2054887192574000e+01  6.9728210514960693e+01  6.7950255706601155e+01  6.6332405426052361e+01  6.4674052958666820e+01  6.3160715190038331e+01  6.1247076287320844e+01  6.0543438928626124e+01  6.0945563250665437e+01  6.3918783069119023e+01  6.6213279055307794e+01  6.7130607043922083e+01  6.8075801435762529e+01  6.9761002023717779e+01  7.2131165747497917e+01  7.5015250961567460e+01  7.5869233885807176e+01  7.5878907027152451e+01  7.4597820096384169e+01  7.2186355138285407e+01  7.1768903387640847e+01  7.3929093980680506e+01  7.5414281836345438e+01  7.5933040627028916e+01  7.5938812039795408e+01  7.4339306426672024e+01  6.9541463703016220e+01  6.8825072737378335e+01  6.7769734544367807e+01  6.7197767430626769e+01  6.6288458852368819e+01  6.5135697468845265e+01  6.3754909065306649e+01  6.2434327012440725e+01  6.1241744998212738e+01  6.0726711658239772e+01  6.0425798573423549e+01  6.0301530807130341e+01  5.9938760433858995e+01  5.9832792001642815e+01  5.9845392447175392e+01  6.0318242960143500e+01  6.0987453873997730e+01  6.1086274068809963e+01  5.9925568617784677e+01  5.8652211759766473e+01  5.7446638975181784e+01  5.6708279483408369e+01  5.6382246709109729e+01  5.4877557362885391e+01  5.3490954009469739e+01  5.2228372376057301e+01  5.1839413011926794e+01  5.0666425968733222e+01  4.9196348182720612e+01  4.9340566946294153e+01  4.8760748109882620e+01  4.7911530193376379e+01  4.6017786880828531e+01  4.3819176147258801e+01  4.2396586895006912e+01  4.0802428652578776e+01  3.9462289124261510e+01  3.8178909406493823e+01  3.7446994511846604e+01  3.6989990083170177e+01  3.5957019874988823e+01  3.5335793104738862e+01  3.5264926403680946e+01  3.5156452156037275e+01  3.4621250047652495e+01  3.4154933081405638e+01  3.3626297723274874e+01  3.7317756834271691e+01  4.4907554332324963e+01  3.7823261716540415e+01  3.4849211687707566e+01  3.3052816463074585e+01  3.3178529724075453e+01  3.3276510285518910e+01  3.2903280530316280e+01  3.2424311653666301e+01  3.2015458810489072e+01  3.2094342279621031e+01  3.2624776722142968e+01  3.3405688516372777e+01  3.4176705449985526e+01  3.4974101928416694e+01  3.5991676955167712e+01  3.6445111991766332e+01  3.6997515442141427e+01  3.8345788687613805e+01  4.0269848526851497e+01  4.1196538395329348e+01  4.0819783307778337e+01  4.0763084171186215e+01  5.2305746465209765e+01  6.0281703807366100e+01  8.5128688454706364e+01  8.7563925178771385e+01  8.8017672383660283e+01  8.5185849529041874e+01  8.7847942348977767e+01  4.9144976828296365e+01  8.5007244045663541e+01  8.6552844011967920e+01  7.3396902870847924e+01  7.2587565709574875e+01  6.0009542220888093e+01  5.9854535958633434e+01  8.6733979093822128e+01  5.2305941054129889e+01  5.2155997168793192e+01  8.4844801983617856e+01  8.5389325508291549e+01  4.9144220076756085e+01  8.4093820526119828e+01  8.6552887037532898e+01  8.5495724886358815e+01  8.4693890117449840e+01  8.6506727328992724e+01  8.4770170372467206e+01  8.6506165102251884e+01  4.9211483197008171e+01  6.6809706711870163e+01  7.5796692287413180e+01  5.1643298016806519e+01  3.6570098058687172e+01  5.3185923611551090e+01  7.5100762999846168e+01  6.1276442973739975e+01  6.4401588347301598e+01  4.2040416856136630e+01  4.3179133825878850e+01  7.5434477956550325e+01  4.6618833639237856e+01  8.2030137973194584e+01  6.7610292646338905e+01  5.4539039901211098e+01  5.6568471759635372e+01  6.8930786520756129e+01  3.3698644604684361e+01  7.8004666006144390e+01  6.1613112233165310e+01  7.0720140042641702e+01  5.2196029525448367e+01  3.6848605836887316e+01  4.7027798530290212e+01  4.5170136407782884e+01  5.7609425590607039e+01  4.2949191396754621e+01  8.1211164392004463e+01  3.6613991708133952e+01  7.5735694433632290e+01  6.4730657363166131e+01  7.0022622070583125e+01  5.0646371229497859e+01  7.2551384725031028e+01  6.0525131057731812e+01  6.7889939842000643e+01  6.4847642808274458e+01  5.5741373658675435e+01  3.8635741798648816e+01  5.9721068848475973e+01  7.9752024535985598e+01  7.4554225982477178e+01  8.5521873458327377e+01  7.1167984990305300e+01  6.9521461686323718e+01  5.6291344661385487e+01  3.9505069644676375e+01  4.1652841598104523e+01  5.9449136009401478e+01  7.9103701076918000e+01  6.0964882988603115e+01  3.5140874391921180e+01  3.9118351298433652e+01  8.1189189332811310e+01  4.5154922515742633e+01  3.2065336458424532e+01  6.7736076988077059e+01  7.5872136661176171e+01  6.5270881818701255e+01  4.9708803274814173e+01  8.5239266614005459e+01  3.8534327272817485e+01  5.0869474481873766e+01  5.9963500151245412e+01  6.5386493866635021e+01  5.6398795298566640e+01  4.7082460859136290e+01  4.3737487041223524e+01  5.6467271129581974e+01  4.8005690173143748e+01  4.7855145732428916e+01  4.4615211303282607e+01  4.9414912936851238e+01  8.4576173175227026e+01  7.8532380168477630e+01  5.2973163029869148e+01  8.3154559404372534e+01  7.5794168165696050e+01  7.3816698240227211e+01  8.0538249086326232e+01  6.2606385153029777e+01  5.9100847647711880e+01  6.6315388040178647e+01  7.2344210248962085e+01  5.7978736940062475e+01  7.8267942660589114e+01  5.0783258604326804e+01  6.5586616746680178e+01  3.2559735778608335e+01  4.9471197938028006e+01  6.8985096796650154e+01  7.7477533475938927e+01  6.3911046775174491e+01  7.0949708325380925e+01  6.2256009618732435e+01  7.1581903937375927e+01  3.5751762937574206e+01  5.3419204617687257e+01  5.3330791445477736e+01  7.9805665954479267e+01  6.7408693473213916e+01  3.7487314653310662e+01  7.9354670372154786e+01  6.3589674838244818e+01  8.4335246059122909e+01  3.3391897181224856e+01  8.4810053997505577e+01  8.4738847765021177e+01  5.5301460031258394e+01  5.0971422103335854e+01  8.4810488249750932e+01  8.5813863012387074e+01  8.2968582158245766e+01  8.5175633645648887e+01  7.1501901215919531e+01  3.6092235969017267e+01  8.0811675271943670e+01  7.5857495172036081e+01  5.6172068669193671e+01  5.0550996932457430e+01  4.7253738008246721e+01  8.5538587575752828e+01  8.4733550268190058e+01  5.8410184984898692e+01  8.5899322450296452e+01  8.3744301892518308e+01  8.4241948817479866e+01  8.5971282729959739e+01  5.9804125740607027e+01  4.9020879178769682e+01  7.1157525945110905e+01  3.4191242622249327e+01  4.9058018347915237e+01  3.6649701575510349e+01  6.9173014625021437e+01  8.7328164912515248e+01  6.6707422454459405e+01  7.2801210268163686e+01  8.3455354704956790e+01  6.0090448846211942e+01  3.2105953005090612e+01  7.2042093653652898e+01  3.9488308703453114e+01  5.2319737520321823e+01  8.4932128621851248e+01  8.2951748433630357e+01  6.2026823414413052e+01  8.7334537274158890e+01  4.3937235704840660e+01  8.5475058308042904e+01  6.3873849054213466e+01  3.2517267918167427e+01  3.6260270920408765e+01  3.7347820043302235e+01  7.2560117112239809e+01  8.1861139359718891e+01  8.1160494358662717e+01  6.8687173430486695e+01  8.5267808874354358e+01  6.0024175525654634e+01  4.8989799041778340e+01  4.8980392427017307e+01  3.2768112496827996e+01  8.4807999414694137e+01  8.4989604404429613e+01  8.5061103696187971e+01  7.5587877601563775e+01  8.1592444456256985e+01  8.5144438503477019e+01  8.3575568607771558e+01  6.6932234161916440e+01  8.7963980399730502e+01  8.7908169351575367e+01  6.1144189573301581e+01  3.5075208491527107e+01  6.0957613304549682e+01  8.2090335973746150e+01  5.5983630498565951e+01  6.4649872830955445e+01  8.7537469038432008e+01  6.1815880825698059e+01  7.3416343704184058e+01  4.0890665138947476e+01  5.6435562878147550e+01  5.5661739293947051e+01  5.7055119045643025e+01  8.5942719844263252e+01  5.0388179578529389e+01  5.1282828075633716e+01  4.9405205277606399e+01  5.1152973636059926e+01  4.7406409254109789e+01  3.2894522790841002e+01  3.1289341134011970e+01  5.2282349955156306e+01  5.5026327014560600e+01  7.5597353852137914e+01  7.5514013497970254e+01  8.7757191172112925e+01  6.6982737455538754e+01  6.4877979140124836e+01  6.0772795135415357e+01  6.0294974406552406e+01  6.0415499027134842e+01  6.0617825427379081e+01  6.0306307925233519e+01  6.0329421391822351e+01  6.2282952074285753e+01  6.0474532179087177e+01  6.1104331572199975e+01  6.4081193972524403e+01  6.2448529705930774e+01  5.8664009540373975e+01  6.0159752913224992e+01  4.4834586058371023e+01  4.6546405778282590e+01  4.4734283830356915e+01  4.3108336037509460e+01  4.3681909016660292e+01  4.1649916051861730e+01  4.2964227727584266e+01  4.2261940771255901e+01  3.8920205714341193e+01  3.7730422827398684e+01  3.4044062401007153e+01  3.4558907235367045e+01  3.4501645564751996e+01  3.5478586487926215e+01  3.4932969329354840e+01  3.6229252660668010e+01  3.6268092250359089e+01  3.5471361416517233e+01  3.6719029207398897e+01  3.6450969654580248e+01  3.7221602205945445e+01  3.6671759961755569e+01  3.7933667097557255e+01  4.0357047250427883e+01  3.8901549990186567e+01  4.7217465624104968e+01  4.6505027271366217e+01  4.6923135437537745e+01  5.0200943771039270e+01  6.7973463443229619e+01  6.7243887291099398e+01  6.6289793584360808e+01  6.7771251431111537e+01  7.3853907491666320e+01  7.7216125876694775e+01  7.4902725633582790e+01  7.6910386956706958e+01  5.4216944841574069e+01  4.9963141738750245e+01  5.0332618337576868e+01  5.2394064194458828e+01  3.6988146956317870e+01  3.8670479557881748e+01  3.6762942313362529e+01  3.7555969292969301e+01  3.7026117971908107e+01  3.6344991397682648e+01  5.4777244342326568e+01  5.6498462284574728e+01  5.1196519277605418e+01  5.4387601480995265e+01  5.1128647720989370e+01  7.5490371613283287e+01  7.2721122089563096e+01  6.0568585629421030e+01  6.0376966045300591e+01  6.2787656179176672e+01  5.9740177713755521e+01  6.2596388802668201e+01  6.1334599842672795e+01  6.3255079530407308e+01  6.6265606224370146e+01  6.5111351467761381e+01  3.8574317677334157e+01  4.0072625450018585e+01  4.1803187386875010e+01  4.0696016853839154e+01  4.3574686160660399e+01  4.2992946219422443e+01  4.7321270221551025e+01  4.0216110002260116e+01  4.0693699313069459e+01  4.5269544463345127e+01  4.5655887471915392e+01  7.2874557634329037e+01  7.7390490320967658e+01  7.4203568187999110e+01  7.8180693875662783e+01  8.0998708804169596e+01  7.0333829255522289e+01  6.5649280514482513e+01  6.9190494168112664e+01  6.7343292758102592e+01  5.1820173785584267e+01  5.5474334000281004e+01  5.6224201007749102e+01  5.2001830576661561e+01  7.1947727973200315e+01  6.9287172599101709e+01  6.9380260323105873e+01  6.6943615915197654e+01  3.5090763153313212e+01  3.4194067594142552e+01  6.1489030314787279e+01  6.0413426828513337e+01  5.9250810204806371e+01  7.1341595915008270e+01  6.9105362845954531e+01  7.2559502622886200e+01  6.9274669541755443e+01  5.4209867681787131e+01  5.0275827168952077e+01  5.0682211983368802e+01  5.2411813687725264e+01  5.0838889958060392e+01  5.2551957819923700e+01  3.7563265537721826e+01  3.6459931335895980e+01  3.7588531333106793e+01  3.6516699079216146e+01  3.7008849623473829e+01  3.6891996153858777e+01  4.6050449316972141e+01  4.7956177433313925e+01  4.7982590340409878e+01  4.7980647103790268e+01  4.1029527952272801e+01  4.6422802557893256e+01  4.6458909365340709e+01  4.7569648925928576e+01  4.1817528253629128e+01  4.4437651023970083e+01  5.7241588291799928e+01  5.8957671343834221e+01  5.6736387042563159e+01  5.5949660574509878e+01  4.0845113812277653e+01  4.4377063478638163e+01  4.0183337033367032e+01  4.5035531924429186e+01  3.7672633645979218e+01  3.4804289886548155e+01  3.7584186030652866e+01  3.6189681824608563e+01  3.6350868217484781e+01  3.5496590225501457e+01  3.7042866956041848e+01  6.3982592878910594e+01  6.3401597056861547e+01  6.5982863373766563e+01  6.6012611707519895e+01  7.0472783876604424e+01  4.8922633784132209e+01  4.9386397351447677e+01  7.0690198566194212e+01  6.2850501821023933e+01  5.9495714125749657e+01  5.8790732088504647e+01  6.2091671201795741e+01  6.9170891384073414e+01  6.7173547726878141e+01  6.3637630433066306e+01  6.3383817932782584e+01  5.7526724344192729e+01  5.2679269385235102e+01  3.8931161241947471e+01  3.8775469925002533e+01  3.7899577417101554e+01  5.9194617791480027e+01  6.0894336388274105e+01  7.6404413885186173e+01  7.8876413174907668e+01  7.2800403997112070e+01  7.6579308781862395e+01  7.3189686598936035e+01  7.3259962641389109e+01  6.7933341134790808e+01  6.7439990626636117e+01  5.5369943345454182e+01  3.8417424400744807e+01  5.7662627141640471e+01  5.8966226806481863e+01  3.5273663870020762e+01  3.6154833351678654e+01  3.5175915800152858e+01  4.2463171652820044e+01  4.4905675679279227e+01  5.2794389220523492e+01  4.9119677365981744e+01  4.9747009764141517e+01  5.0492620174055567e+01  5.9666111460943945e+01  5.9946389479722328e+01  6.0550440652395274e+01  6.0651110087985543e+01  6.4700540967400215e+01  6.4294270846795413e+01  5.4780317549091464e+01  5.0176276127254575e+01  4.8657390242701076e+01  5.0780183694650063e+01  4.8709691579821630e+01  4.5800392345428222e+01  4.7043777525970263e+01  5.5548672751669073e+01  5.2218437543082736e+01  7.5933641034721958e+01  5.4253913249052253e+01  5.1155263952506814e+01  6.2638653944818117e+01  6.5419160735726123e+01  6.9057752952283295e+01  6.7137782791975852e+01  3.7060012937967898e+01  3.4147013459521290e+01  3.6813315907071598e+01  5.9938983174828422e+01  3.5987550807135513e+01  6.0666513547639781e+01  4.1765158884371992e+01  3.8189511722504307e+01  6.1428483304809149e+01  4.8567606736721451e+01  6.7864996857165593e+01  3.6778897624473927e+01  3.7212898978089584e+01  3.6521472030727359e+01  3.6697066440210520e+01  3.6449638430991364e+01  6.1934531937001246e+01  4.3297991602623931e+01  4.5314694982020853e+01  4.4390059736450546e+01  7.5654954684318383e+01  5.8331967781230382e+01  5.3146056160750980e+01  5.3124828043825744e+01  5.4074493182438147e+01  3.4949815795097201e+01  6.9112874519665070e+01  6.9721530258000840e+01  3.7349228344513868e+01  3.7038277542364860e+01  4.6868016872277572e+01  4.7287011879799060e+01  4.2982106793377604e+01  5.6763560777094284e+01  6.0286453819300625e+01  6.1590030611768512e+01  5.9405165212849447e+01  6.2340421266043073e+01  3.9572024146884928e+01  3.8105175763103212e+01  3.8630332884540714e+01  3.8262961468632611e+01  6.9485479533997022e+01  3.8304571115974603e+01  3.9920990067217268e+01  4.0757789698977355e+01  5.0344646215487877e+01  5.0671972062936987e+01  5.1078321978836762e+01  4.9226646619522683e+01  3.9589096937105808e+01  3.7882282873144916e+01  3.8805518912112731e+01  4.9295377801843841e+01  7.3214955088135824e+01  7.3865948916530016e+01  7.4885805937730467e+01  6.2299407520669753e+01  6.6884221702450461e+01  5.2371081246460747e+01  4.9864193227693498e+01  4.9039668286513056e+01  5.0342142344277399e+01  6.4572111909346120e+01  6.1632130501472737e+01  6.2338720231826230e+01  3.6400730698365876e+01  3.6134454978814418e+01  3.5936340222239934e+01  5.2762791635381923e+01  5.4707028590016719e+01  5.4357856676705481e+01  5.2126857837593541e+01  6.6403382709985607e+01  3.6120533574730040e+01  3.6443887907812687e+01  3.6347245695938881e+01  6.0484136703890591e+01  6.0240085586311906e+01  6.0303151959671318e+01  4.2942923558647514e+01  4.4156386656907358e+01  4.4827794168934616e+01  3.7441045794579949e+01  3.5278358072289642e+01  3.5642648194851908e+01  6.1365914288388581e+01  6.2809310297271267e+01  6.1986704024798705e+01  6.1169416813973790e+01  6.1184916416168356e+01  6.1576901007630724e+01  6.0848416231504594e+01  4.5170484241196462e+01  3.5724750659574966e+01  4.7591820894163519e+01  6.8517101581693836e+01  5.1286644540746295e+01  5.0726815780450472e+01  3.6606599400840956e+01  3.7592481533634377e+01  3.7713737291748089e+01  3.8929612960467495e+01  3.8234066978505773e+01  3.7228997818873971e+01  5.1005866343589801e+01  5.0005523429526257e+01  5.0054641950048030e+01  6.1424148054915797e+01  6.1954484441131648e+01  3.7856916092373936e+01  3.8660953687504062e+01  4.1554774591794732e+01  4.2039118284067150e+01  4.6545611729223218e+01  4.0343424895390477e+01  4.0406554849834599e+01  3.9629078547998930e+01  4.7678215593141850e+01  7.5144841838082755e+01  5.2242746805093304e+01  5.4113531360900197e+01  5.3067387427739583e+01  6.7787704106762931e+01  6.8443894936218456e+01  6.7142644102204244e+01  5.1487198900977255e+01  5.3531495685248046e+01  5.1691737576678634e+01  4.5094819463584926e+01  5.5680621218975681e+01  5.5222310056091494e+01  3.8274146528059568e+01  3.7758889811796159e+01  6.4939306984941510e+01  6.4651108604278122e+01  6.5648839525377255e+01  3.8273809904162924e+01  3.6088724750901598e+01  </DataArray> 
</PointData> 
</Piece>
</UnstructuredGrid>
</VTKFile>