<?xml version="1.0"?>
<VTKFile type="UnstructuredGrid"  version="0.1"  >
<UnstructuredGrid>
<Piece  NumberOfPoints="784" NumberOfCells="1320">
<Points>
<DataArray  type="Float64"  NumberOfComponents="3"  format="ascii">266913.131276 586512.314988 0  266738.13716 587762.325998 0  266363.132677 589012.328643 0  266175.641078 590169.601714 0  265666.575631 591040.7699119999 0  264875.64001 591687.766419 0  264900.636161 591845.049083 0  266088.14152 592012.3229499999 0  265561.959259 592661.17101 0  264288.136855 593037.368683 0  263865.194033 593999.8486949999 0  263850.641856 593236.729596 0  263625.634872 592756.525286 0  262689.574249 593299.848918 0  262475.636737 594003.0907310001 0  261934.554452 594340.929792 0  261725.631329 594932.094409 0  261729.256443 595728.498809 0  262138.136044 595012.330523 0  262288.141035 596262.333669 0  261488.994028 597511.480605 0  261234.15567 598316.338928 0  260815.635063 599014.863821 0  261400.643658 599389.7367680001 0  261322.963374 600022.185065 0  261119.455248 600931.061306 0  261607.436504 601293.0629359999 0  260807.446929 602089.899812 0  260025.642878 602988.868697 0  259613.135827 603937.3854499999 0  259050.643123 604100.987861 0  258411.880065 603988.6335979999 0  257764.357469 604449.872569 0  257971.239668 605320.429125 0  258041.396867 605740.635381 0  257188.143339 606987.394312 0  256038.141198 608112.3554550001 0  254788.141633 609087.4026939999 0  253588.140656 609812.362881 0  252338.135706 609737.4048949999 0  251088.138116 609787.404055 0  249963.12851 610287.399466 0  248613.130524 610462.365857 0  247363.132198 610687.407659 0  246113.130532 610837.411551 0  245832.347438 610918.209918 0  245016.946433 610958.5639439999 0  244313.129646 610762.372259 0  244400.622144 611378.093316 0  243939.669208 612460.8930899999 0  242960.649733 611984.892792 0  242170.381438 611919.647351 0  241888.122919 611112.375656 0  241393.380757 610467.6456149999 0  240594.157528 611306.369822 0  240525.621947 610804.648112 0  240363.123632 610512.3745050001 0  239113.123247 610262.374278 0  239813.12126 609037.412459 0  240588.122952 607812.368199 0  241013.119545 606625.9534560001 0  241454.373249 605724.888025 0  242238.120107 604687.3993 0  243088.121248 603462.362766 0  242860.319451 603007.3932640001 0  241563.116617 603812.361344 0  241778.400913 604327.642217 0  242059.837234 604824.879102 0  241475.620201 604923.2402390001 0  241462.182234 605449.881372 0  240906.219606 605674.888222 0  240241.856192 606891.125066 0  239891.734044 607841.012479 0  239048.653431 608724.889805 0  238118.054545 608974.895967 0  238888.111029 607337.406468 0  239738.119992 606212.362729 0  240288.12044 605687.4075229999 0  240380.212307 604729.521696 0  239347.309632 604603.204501 0  238888.112036 604387.408787 0  237913.11173 604687.401386 0  236784.172023 604499.882783 0  236883.408793 603717.08334 0  236154.933927 603595.565605 0  235688.103943 602912.369264 0  235763.108033 601662.366516 0  236363.110805 600412.35884 0  236738.107995 599162.356577 0  236525.607944 598482.2412899999 0  236138.109208 599362.357613 0  235725.063048 600325.4466510001 0  235091.948926 601408.5220979999 0  235188.10921 600312.366344 0  234375.602405 600833.9674270001 0  234663.109308 599912.358011 0  234138.105122 600062.365644 0  233955.307245 599029.561063 0  233338.103791 598387.401556 0  233988.09795 597862.356384 0  235138.101489 596637.3947750001 0  235563.1039 595387.392428 0  236513.103639 594212.356312 0  237163.10684 592987.3929869999 0  238313.103031 591862.3515540001 0  239513.107028 590812.3512640001 0  240638.102135 589787.387271 0  241463.109549 588587.378486 0  242294.489816 587443.735215 0  242913.101099 586512.341804 0  243544.066915 585474.859604 0  243040.448415 585184.975583 0  242438.10214 585337.38015 0  241313.102353 586562.339499 0  240538.107104 587787.382449 0  240114.641085 588588.939407 0  239388.100256 589437.382238 0  238188.104456 590512.346358 0  236938.100507 591362.349798 0  235813.10453 592537.396388 0  234864.502938 593178.7753880001 0  234463.097651 592862.357267 0  235113.0965 591662.3545979999 0  235713.101522 590412.346099 0  235777.688431 589976.7582779999 0  234943.583145 590706.265132 0  234462.482256 591490.2841159999 0  233801.497784 592112.940187 0  233388.099101 591787.394208 0  234013.093099 590437.393065 0  234776.217248 587148.7548100001 0  235163.093726 586562.3486189999 0  235313.098918 585483.229012 0  235250.59732 584662.298153 0  235588.093896 583337.379493 0  236329.432041 582199.858992 0  237188.096234 581462.3349939999 0  237463.088521 580212.335511 0  238350.592558 579057.652616 0  238591.415797 578574.847681 0  238313.094106 577612.328905 0  239229.696732 577695.769664 0  240195.161018 577513.008613 0  240614.996733 577149.8518770001 0  240663.091715 577412.332622 0  240288.092486 578662.334085 0  239942.357258 579508.095811 0  240438.100019 580212.3334220001 0  241338.095553 580387.375355 0  241238.099828 579137.369157 0  241788.097003 577887.370889 0  241983.554649 577241.9220939999 0  242054.178239 576927.8105029999 0  242588.100699 575737.366175 0  243149.324833 574898.583978 0  243695.278626 573919.517981 0  244268.494418 573724.8454239999 0  244995.134063 573930.2767810001 0  245417.314363 573391.601898 0  243450.599125 571859.479773 0  245776.797908 572599.8353060001 0  246779.639852 572973.285167 0  248034.741935 573186.082054 0  249413.10651 573162.3205520001 0  250496.922226 573271.1521899999 0  251613.105126 573237.3551319999 0  252421.824577 572846.032906 0  253256.245022 572580.4733130001 0  253739.471933 571960.9547369999 0  254174.511864 572149.8346569999 0  254484.944333 571684.194807 0  254384.108649 570891.346712 0  254344.002752 570218.26407 0  255025.609604 570829.0294979999 0  255715.005913 570489.264586 0  256218.846343 570774.828355 0  256834.349083 570508.5908 0  257390.092515 570014.308325 0  257624.431042 568493.478911 0  259355.811717 569380.021819 0  260033.372814 569617.066669 0  262679.741751 570320.699974 0  263289.115756 569524.817815 0  263463.114338 570512.301061 0  264638.198419 570687.3443539999 0  265058.220065 571334.378467 0  265447.561421 572077.90485 0  265488.125257 573137.3446020001 0  265131.937715 573963.293593 0  265432.389648 575093.068786 0  265638.122314 576338.029955 0  265750.630817 577371.8281319999 0  265738.570663 578561.9098850001 0  265875.630866 579139.630549 0  266213.129247 579862.311842 0  266563.130472 581112.314509 0  266238.135356 582362.310259 0  265938.12863 583612.320897 0  265738.131342 584762.3210189999 0  266875.638633 585365.358768 0  264018.7239399826 593650.4646671159 0  262236.3944351029 595831.1252656333 0  241846.246678 605206.1436625 0  240200.622106 608424.8903290001 0  240943.4862974102 610939.7757535663 0  236550.6094 599787.3577085 0  238528.1212051503 608102.9081793013 0  244413.4891967989 572609.5960859474 0  236382.0474488751 598808.3067022427 0  235369.601910944 600933.5380148316 0  235413.099011 591037.3503485 0  235446.2251831186 590266.6553871984 0  240475.5921005 578037.3333535 0  240413.173949154 577324.4280286073 0  240574.037899 606283.0066440001 0  263857.9179445 593618.2891454998 0  264153.4303974913 593343.916675058 0  242042.1833925 604946.7714812499 0  241650.3099635 605465.51584375 0  244613.6985165 572229.6575395 0  236631.8579695 598822.2989335 0  235140.029068 600860.444221 0  241767.7287175 604874.0596705 0  242140.15174975 604817.0853906251 0  234781.8558075 600573.1668855001 0  242091.167571125 604881.9284359375 0  234519.3558565 600373.162719 0  254604.8337712102 583989.0014118921 0  250699.5846056537 594617.3297041012 0  250540.4796469513 602258.2940568649 0  248483.7490186612 580334.7345534252 0  258549.2190328319 577893.951823392 0  257067.0067473103 590016.5327808241 0  243285.0921999099 596333.923437875 0  248333.1386145258 589098.0389905117 0  256142.8445072741 595883.3911551933 0  260245.1368072523 583315.2785712298 0  253472.3380211276 578932.2908163272 0  246432.3347504817 599884.5019511909 0  261555.9240922556 588041.186709004 0  247293.1100123104 605823.8307887657 0  246458.2798550911 593168.8646574575 0  252840.0183145193 588226.5564648228 0  249828.2874404451 584740.7888937403 0  255409.5660975206 600458.8956828594 0  260819.9733392385 574219.403683011 0  252584.2262054711 605722.6603825617 0  254049.8830611471 592547.4852571967 0  250015.4356193061 598425.2225922942 0  245872.072249477 577604.9761853142 0  262002.1583249522 579753.4663046852 0  257732.6630933878 586227.970805314 0  250242.5556457866 577017.3316409125 0  244921.6453001869 581816.6358421432 0  256520.3890639471 580904.824006648 0  240779.0970645865 599524.6679555867 0  257100.1829219198 574459.5922545703 0  239912.2630002034 595231.1172704464 0  244703.0875078634 590068.6945953515 0  242549.5490268674 592874.3693043783 0  251586.0465921376 581796.2215047925 0  246643.189997516 596527.447801719 0  251049.7658069622 591057.6752245198 0  253014.5731561695 596998.6601086652 0  238680.2197353724 584542.2309791476 0  259715.365803504 591937.1938619445 0  254097.157218761 575731.4494927844 0  246806.6408589328 586139.0877599345 0  246136.1179750556 602959.471719323 0  253520.7033332401 602835.180253843 0  244125.4295793909 607538.9817227355 0  252546.8895354472 599881.3279113505 0  258289.0983523553 600397.640191779 0  247518.7952199645 583037.3718217331 0  263140.3959879661 582529.2228421422 0  262894.8586894067 585442.3590432997 0  256968.6320599076 593040.7691844478 0  243573.0187527719 600218.2795730785 0  258888.5766127351 595139.7745218446 0  262588.7569809347 576734.8569237856 0  259318.4257992262 580601.2540325444 0  249963.3812725965 607065.7205847671 0  257494.5307999607 583482.5893534871 0  258906.4757205145 572278.8089438241 0  237751.446593475 587300.5805003279 0  255142.4708720699 604956.7580261135 0  258485.4978753244 597756.9250383095 0  255516.7820591553 587791.39641967 0  239758.4692108706 601926.8203218657 0  255873.0092222999 577739.5085867504
[...]
<PointData  Scalars="f_32-1"> 
<DataArray  type="Float64"  Name="f_32-1"  format="ascii">4.1486578651527786e+01  4.2796802174054577e+01  4.4817672800682551e+01  4.6640924182688288e+01  4.7981824958512497e+01  5.0042148956188448e+01  5.0714032939850846e+01  5.1155024986421154e+01  5.1198965467911648e+01  5.1858615105060117e+01  5.2291185761829517e+01  5.2107072505596506e+01  5.2265408416572654e+01  5.4755378267384344e+01  5.6189598385840490e+01  5.7395563997942155e+01  5.8892354114197424e+01  6.0395862296751027e+01  6.0356105282052432e+01  6.0804903339536054e+01  6.2992881133006655e+01  6.4738035357750377e+01  6.6701211156678170e+01  6.7741324280756530e+01  6.8291780510903990e+01  6.9601510171009252e+01  6.9981228730827951e+01  7.0711412861313676e+01  7.2060425156009586e+01  7.2861712781033901e+01  7.3042241004898713e+01  7.3477600607787878e+01  7.4596902542702750e+01  7.5530604193537840e+01  7.5707358934411289e+01  7.6622116119999191e+01  7.7884817183062054e+01  7.9218467295007244e+01  8.0173552240673061e+01  8.0982360217933703e+01  8.2194566590214734e+01  8.3331836805021098e+01  8.4349732623171633e+01  8.5238820758844881e+01  8.6027783434027043e+01  8.6193764066340279e+01  8.6618882508655531e+01  8.7167975660255607e+01  8.7601982592501088e+01  8.7803857662402663e+01  8.7844101585110366e+01  8.7883240953584746e+01  8.7866916249906197e+01  8.7952318243364047e+01  8.8165432461688212e+01  8.8148968152072158e+01  8.8152240535459285e+01  8.8241021212714912e+01  8.8008340768542880e+01  8.7279561139312008e+01  8.6456324409283951e+01  8.5778734786081174e+01  8.4693124127696237e+01  8.2935448243954099e+01  8.2750156898066152e+01  8.4964212358236622e+01  8.5536841813090831e+01  8.5668072358798838e+01  8.5819996488888719e+01  8.6035919898840717e+01  8.6319855918841483e+01  8.7374251780970340e+01  8.7776881014367049e+01  8.8009247465129889e+01  8.8061790252181737e+01  8.7805412272836335e+01  8.7203887310854043e+01  8.6603648578283114e+01  8.5982974164221119e+01  8.6352225560552284e+01  8.6656987704464967e+01  8.7084813673417059e+01  8.7210368001954421e+01  8.7201572378359629e+01  8.7247255664610535e+01  8.7219034630220719e+01  8.6932612618942130e+01  8.6023401872173210e+01  8.4534261378126928e+01  8.4360315038988688e+01  8.5843951587207542e+01  8.6485906638829732e+01  8.6680243216950913e+01  8.6531137021082955e+01  8.6617167396290114e+01  8.6460724852748100e+01  8.6445754944336784e+01  8.6240121438714510e+01  8.6149346290126402e+01  8.5860954252706506e+01  8.3589539379651711e+01  8.1191459592146288e+01  7.8117077917359339e+01  7.5185060959245632e+01  7.2377902550641480e+01  7.0008996902795218e+01  6.8141908969552475e+01  6.6492306272930350e+01  6.4750210285562105e+01  6.3203809569884292e+01  6.1258066557732441e+01  6.0573868000127639e+01  6.1005132703519948e+01  6.4003576033680076e+01  6.6347393609815313e+01  6.7297066835889467e+01  6.8274202590036609e+01  6.9984975588833350e+01  7.2299581132210079e+01  7.4963434368259243e+01  7.5720230583070631e+01  7.5728609757037660e+01  7.4588034714436773e+01  7.2348927977976786e+01  7.1934194114864496e+01  7.3959525372720023e+01  7.5331779510823424e+01  7.5803300202401545e+01  7.5807753806389243e+01  7.4340823656508263e+01  6.9689831375221615e+01  6.8964253856457475e+01  6.7891133674169936e+01  6.7306104291238597e+01  6.6396166359739880e+01  6.5265535459256981e+01  6.3899841189018915e+01  6.2580059812969495e+01  6.1412283044676343e+01  6.0919711857050501e+01  6.0624322470518280e+01  6.0526238412694994e+01  6.0225335082061761e+01  6.0135244212257760e+01  6.0146038801291034e+01  6.0563658895333148e+01  6.1196126059310430e+01  6.1283187566903933e+01  6.0055907628015987e+01  5.8726140767626603e+01  5.7515297789080819e+01  5.6772694234141873e+01  5.6451091461921330e+01  5.4954434135439108e+01  5.3612009235034584e+01  5.2401639257184868e+01  5.2018416024498826e+01  5.0848562357001526e+01  4.9379024564040975e+01  4.9419807052390489e+01  4.8943204604052482e+01  4.8126480507737192e+01  4.6167247011163802e+01  4.3899129157572148e+01  4.2469035518071983e+01  4.0866748007129722e+01  3.9541505878031465e+01  3.8275398566004974e+01  3.7543094292841651e+01  3.7080593235746576e+01  3.6069072772640936e+01  3.5474772287383665e+01  3.5406048666579991e+01  3.5301727657706799e+01  3.4776036019058132e+01  3.4277938865411564e+01  3.3186749453516029e+01  3.2323745711222351e+01  3.2537139107875319e+01  3.1358775494910702e+01  3.1289118983490422e+01  3.3103018064879691e+01  3.3261893692770705e+01  3.3262506557597142e+01  3.2968254590751485e+01  3.2584097732115161e+01  3.2227874118089488e+01  3.2267734746433376e+01  3.2766396938737977e+01  3.3529611977254369e+01  3.4311107590869319e+01  3.5046555757384340e+01  3.6003738588415970e+01  3.6502541989021239e+01  3.7144477681477987e+01  3.8506496176403736e+01  4.0285245252433597e+01  4.1219918854934349e+01  4.1018651650214899e+01  4.0968793506436143e+01  5.2242402885569589e+01  6.0563071167168978e+01  8.5289689056557961e+01  8.7709149105119195e+01  8.8138508838968903e+01  8.5308650267006726e+01  8.7988309003102202e+01  4.9262956371974262e+01  8.5110611556152094e+01  8.6642647467305522e+01  7.3489060873303387e+01  7.2701115102883108e+01  6.0288077364431594e+01  6.0153955991830934e+01  8.6918887846126907e+01  5.2242505077255011e+01  5.2125112696607012e+01  8.5005284692110536e+01  8.5552739290975822e+01  4.9261971015660720e+01  8.4219166274842323e+01  8.6642741963387820e+01  8.5694051930768183e+01  8.4853648948491511e+01  8.6586314147797324e+01  8.4930558254437727e+01  8.6585638293360276e+01  4.9048707429634725e+01  6.6703710948187975e+01  7.5857179360861863e+01  5.1375033048183923e+01  3.6293823639181426e+01  5.2640663930127168e+01  7.5251847189645702e+01  6.0974545224823274e+01  6.4477086849638184e+01  4.2080379578660086e+01  4.2608211804021025e+01  7.5330517941508262e+01  4.6746455586659543e+01  8.2208590545440586e+01  6.7513735135422081e+01  5.3952621424657885e+01  5.6602152521793336e+01  6.8726576105781618e+01  3.3761284173127081e+01  7.8202631998898809e+01  6.1622435367965899e+01  7.0414215730446784e+01  5.2166204932938754e+01  3.6747450011749912e+01  4.6570838932846620e+01  4.4985913543541301e+01  5.7546581036898552e+01  4.2767005816344195e+01  8.1418419993088449e+01  3.6682691043045480e+01  7.5964489538541443e+01  6.4199326023035795e+01  7.0183710402389210e+01  5.0759083291301991e+01  7.2606998789715448e+01  6.0127196441230353e+01  6.7704538327207075e+01  6.4963860449506910e+01  5.5785971207116319e+01  3.8587295823198808e+01  5.9648831260702345e+01  7.9834922560421958e+01  7.4651347234002984e+01  8.5687101202113539e+01  7.1033323064406545e+01  6.9593573173940655e+01  5.6339138206412372e+01  3.9558707798992877e+01  4.1861642087995023e+01  5.9425939582301460e+01  7.9282382571086075e+01  6.1148421741626791e+01  3.5199072415421249e+01  3.8796284571450357e+01  8.1362806022592906e+01  4.5090861846796500e+01  3.2361755464424988e+01  6.7921645230813184e+01  7.6045301806840257e+01  6.5424076635956538e+01  4.8499797695942092e+01  8.5288179615422351e+01  3.8119645594027247e+01  5.1038826674976200e+01  6.0040726066071038e+01  6.5287010065000359e+01  5.6469030702280804e+01  4.7028141005610003e+01  4.3885784026658669e+01  5.5924606428093746e+01  4.7917770268098081e+01  4.7832714067527881e+01  4.4731072025608789e+01  4.9262702843597495e+01  8.4732655281160604e+01  7.8708838645842206e+01  5.3044879586208900e+01  8.3318668165962137e+01  7.5951296025136429e+01  7.3548760251430636e+01  8.0737583877944999e+01  6.2738042754756741e+01  5.9216817147572172e+01  6.6051725413599868e+01  7.2430161745043506e+01  5.7932907424105402e+01  7.8334171851870849e+01  5.0165762692766513e+01  6.5640777097162442e+01  3.2674590255753060e+01  4.9143773738333024e+01  6.8988202882408260e+01  7.7695359828333167e+01  6.3312783177137881e+01  7.1092028649985181e+01  6.1883492134109012e+01  7.1878245418205594e+01  3.5681083767447078e+01  5.3055855007394392e+01  5.3468011992178617e+01  7.9958149233433758e+01  6.7182428127147148e+01  3.7480336529863614e+01  7.9520271601536308e+01  6.3584846908338562e+01  8.4425519237824290e+01  3.3495810319020443e+01  8.4975519244770311e+01  8.4901354601698927e+01  5.5382328032571557e+01  5.1075559094789007e+01  8.4971422720176861e+01  8.5959762624024819e+01  8.3120654318798614e+01  8.5257383953474587e+01  7.1627598023613302e+01  3.6205441654428782e+01  8.0954468475110843e+01  7.6038061372482957e+01  5.6248120776633449e+01  5.0652490683247436e+01  4.7445797582414684e+01  8.5702681845311645e+01  8.4893842637650891e+01  5.8587873013762142e+01  8.6015552976495854e+01  8.3895536370675231e+01  8.4401293244672644e+01  8.6105230776057979e+01  5.9863169986619681e+01  4.9144917447103204e+01  7.1363507859698061e+01  3.4252720392292638e+01  4.9225682947436283e+01  3.6545663845289432e+01  6.9358172529717208e+01  8.7483885104412792e+01  6.6839208287506253e+01  7.2888156009604046e+01  8.3588679531482754e+01  6.0158339199517521e+01  3.1180540183241391e+01  7.2167661126835597e+01  3.9551931233439262e+01  5.2479933896893904e+01  8.5029233403425167e+01  8.3055793404852508e+01  6.2200876399222743e+01  8.7487610077119754e+01  4.3823184408963144e+01  8.5567981719820324e+01  6.4072265641023506e+01  3.2623977166105568e+01  3.6373322512457754e+01  3.7523671236506814e+01  7.2642476808937658e+01  8.2009183548140797e+01  8.1339803502213996e+01  6.8836001671076275e+01  8.5431023347152987e+01  6.0205092324044159e+01  4.9144569018927655e+01  4.9132947177801015e+01  3.2549563355173582e+01  8.4968766569064144e+01  8.5149997509971882e+01  8.5222277178960866e+01  7.5768598284654743e+01  8.1748358580396939e+01  8.5277914101004072e+01  8.3715138246437121e+01  6.7090072478333894e+01  8.8089032801013275e+01  8.8037731363012995e+01  6.1283095055247486e+01  3.5088954320748499e+01  6.1150617543697372e+01  8.2233850624178018e+01  5.6114187147153189e+01  6.4780796161839945e+01  8.7676848456379574e+01  6.1927352065652641e+01  7.3544887314989296e+01  4.0992630296206869e+01  5.6506593370176788e+01  5.5730970144342507e+01  5.7122958630347213e+01  8.6025670341284012e+01  5.0489500584925537e+01  5.1362709417330144e+01  4.9532202554537747e+01  5.1231864222626726e+01  4.7539090260541442e+01  3.2920719400843190e+01  3.1486653542357296e+01  5.2421474491796289e+01  5.5103058700328731e+01  7.5480763449164485e+01  7.5406301257177816e+01  8.7896102296982392e+01  6.7065220853020961e+01  6.4803908711398194e+01  6.0737036183770400e+01  6.0343740918999643e+01  6.0443813230332459e+01  6.0656075898849977e+01  6.0334446368576913e+01  6.0377245142164881e+01  6.2354191763155924e+01  6.0525373007902850e+01  6.1208922006761512e+01  6.4191789540447715e+01  6.2548695078504608e+01  5.8739137830946845e+01  6.0267611055549416e+01  4.4920401071681411e+01  4.6608657985356764e+01  4.4740819854626210e+01  4.3180259495139588e+01  4.3683299792260051e+01  4.1710159097416565e+01  4.2958643879969216e+01  4.2265301710500268e+01  3.9033384108218350e+01  3.7878237980529718e+01  3.4161518570607171e+01  3.4669324299208739e+01  3.4595078657136945e+01  3.5506753588763289e+01  3.4983570332389348e+01  3.6257716835122956e+01  3.6240580052027369e+01  3.5457323545034924e+01  3.6831255887822138e+01  3.6449360469579901e+01  3.7296346541485342e+01  3.6724314399927152e+01  3.8031035965266689e+01  4.0317979598142273e+01  3.8940373215983627e+01  4.6544278464789592e+01  4.6476310023117385e+01  4.6714003036683323e+01  4.9813216069780324e+01  6.7650784640419033e+01  6.7079116416140579e+01  6.6225141850890296e+01  6.7656913593659297e+01  7.3868011820251468e+01  7.7348990564721063e+01  7.4817524575352508e+01  7.6946540903269209e+01  5.4004509744887464e+01  4.9864836512103992e+01  4.9964320008801508e+01  5.1845518232579693e+01  3.6711838256964349e+01  3.8379737353266300e+01  3.6655921329416827e+01  3.7201276670950094e+01  3.6799772629685215e+01  3.6104383233848253e+01  5.4658224569974891e+01  5.6207059885533781e+01  5.0292154624475003e+01  5.3717896251837821e+01  5.0778374704986781e+01  7.5654264779745091e+01  7.2836071127106848e+01  6.0143290005756263e+01  6.0099218958507642e+01  6.2449313145210859e+01  5.9628707475178942e+01  6.2126190501225146e+01  6.0725878106072976e+01  6.3333648820429950e+01  6.6211054521836587e+01  6.5182939455518977e+01  3.8482756564491474e+01  4.0144816171853300e+01  4.1964671559071817e+01  4.0587890004223837e+01  4.3266464400858787e+01  4.2550951380829609e+01  4.7155871847614065e+01  3.9727406677207426e+01  4.0097549029291407e+01  4.4926721715548020e+01  4.5340535471559846e+01  7.2605448875214378e+01  7.7339163481575582e+01  7.3941188197860413e+01  7.8213636910183098e+01  8.1149224271104060e+01  7.0472558020422611e+01  6.5274334195226317e+01  6.9231884323283964e+01  6.7099830729394242e+01  5.0825807141065042e+01  5.4750419168682974e+01  5.5975493540415968e+01  5.1344194958147440e+01  7.1911724085374019e+01  6.9063350654446680e+01  6.9319592963573101e+01  6.6632336690157345e+01  3.5107154389670256e+01  3.4309393534056689e+01  6.1393368681032882e+01  6.0311022569996020e+01  5.9056819390687707e+01  7.1175366344840540e+01  6.8830377193734691e+01  7.2290383112842164e+01  6.9022692188031911e+01  5.4215895609022375e+01  5.0280683059318903e+01  5.0503576619380681e+01  5.2264143340541843e+01  5.0905850867897236e+01  5.2645791673913315e+01  3.7554708206105289e+01  3.6372245270170964e+01  3.7346106673388860e+01  3.6384876490327599e+01  3.6931939175319336e+01  3.6749876277257606e+01  4.5788304110237164e+01  4.6975895221465777e+01  4.7635315131318002e+01  4.6938085902021562e+01  4.0761364635428698e+01  4.6253370124819575e+01  4.6300269231584444e+01  4.7355145796882461e+01  4.1620113741200377e+01  4.4260596167543419e+01  5.7028302692452712e+01  5.9027846166985903e+01  5.6737646843796682e+01  5.5681475341689826e+01  4.0602495561919042e+01  4.4342652757360980e+01  3.9776711243092066e+01  4.4879549248466020e+01  3.7692222342729330e+01  3.4887173775007234e+01  3.7451435346773657e+01  3.6162125517661288e+01  3.6443007116025939e+01  3.5587190680396091e+01  3.7142594296519832e+01  6.3220335647374426e+01  6.2906729900421553e+01  6.5500419040245944e+01  6.5856353286467652e+01  7.0623218260727114e+01  4.8968264388554694e+01  4.9412472616787824e+01  7.0764567965053971e+01  6.2560250776305558e+01  5.9172340680332169e+01  5.8437636418612271e+01  6.1907746906330452e+01  6.8918412290518120e+01  6.6946613683157096e+01  6.3751830845421090e+01  6.3487945794144316e+01  5.7528591311570132e+01  5.2667549212560019e+01  3.8554619457272032e+01  3.8844861403325005e+01  3.8024629538622165e+01  5.9209901331274530e+01  6.0578849856131853e+01  7.6271720733026442e+01  7.8933578094441231e+01  7.2796579210310554e+01  7.6760657853183659e+01  7.3261647029681328e+01  7.3161582573564985e+01  6.7635038500900890e+01  6.7306897195141374e+01  5.4845788096710308e+01  3.8438046919593702e+01  5.7383070398167533e+01  5.9079110746750729e+01  3.5339925769040498e+01  3.6029003299465167e+01  3.5194795440849575e+01  4.2377595970623119e+01  4.4945993480936366e+01  5.1829163623095596e+01  4.8373200302159084e+01  4.8672866398894293e+01  5.0607326160051947e+01  5.9736184082498511e+01  6.0021779490108607e+01  6.0642658493164674e+01  6.0752591463676161e+01  6.4469472453132269e+01  6.4185453374117856e+01  5.4722663596864855e+01  5.0272547916866579e+01  4.8430811508247210e+01  5.0826701577943233e+01  4.8548514548712518e+01  4.5698683363165152e+01  4.7034922326402942e+01  5.5514970773153131e+01  5.2070116954564931e+01  7.5828038459971665e+01  5.4013493834978632e+01  5.0816518821695929e+01  6.1874385893972814e+01  6.4801210626957044e+01  6.9085320892610952e+01  6.7041421146930233e+01  3.6997095328734680e+01  3.4239482339328873e+01  3.6956887530180524e+01  5.9981116104895435e+01  3.5883894408099337e+01  6.0772319244794737e+01  4.1677201655037152e+01  3.8343458148066397e+01  6.1535878821132819e+01  4.7956392639870153e+01  6.7637488332436277e+01  3.6456549588202655e+01  3.6926800297720277e+01  3.6335576111536589e+01  3.6465821062975486e+01  3.6286441568349922e+01  6.1369672797697177e+01  4.2831008110961136e+01  4.4920948968514779e+01  4.3930888562368203e+01  7.5487188270189748e+01  5.7853101635495975e+01  5.2373532636794423e+01  5.2501502668198682e+01  5.3669620312563431e+01  3.4971632878997703e+01  6.8782651416359144e+01  6.9404131389432862e+01  3.7231982422650624e+01  3.6968219885943846e+01  4.6201115446303383e+01  4.6459847357579186e+01  4.2742752838104728e+01  5.6442158961350110e+01  5.9804240309311481e+01  6.1229416095262586e+01  5.8927723166054527e+01  6.2072979425065036e+01  3.9400907948644992e+01  3.8106693828385183e+01  3.8653640919908916e+01  3.8337700832989739e+01  6.9250348326295338e+01  3.7934186341345921e+01  3.9624623032653759e+01  4.0548551105443558e+01  4.9258174271246446e+01  4.9522186483397718e+01  4.9957509550278616e+01  4.8190111722327444e+01  3.9049163543986296e+01  3.7605162703151706e+01  3.8375639454788427e+01  4.8886162573875446e+01  7.2916708023010230e+01  7.3576983770737201e+01  7.4667263701167897e+01  6.2399156867517846e+01  6.6567208079582628e+01  5.1980479802545233e+01  4.9491951416539315e+01  4.8740823682289452e+01  4.9997883268261262e+01  6.3888747479781038e+01  6.1043356033927438e+01  6.1734922365039402e+01  3.6180745703953761e+01  3.5973232039845541e+01  3.5860455795383210e+01  5.2520957750908799e+01  5.4349807168651651e+01  5.3777555583920432e+01  5.1762202870048256e+01  6.5955851938198492e+01  3.6034348929312699e+01  3.6270848249555101e+01  3.6222916909788097e+01  6.0566311118108942e+01  6.0327345950879796e+01  6.0390924758406754e+01  4.2780503557845208e+01  4.4010302232176436e+01  4.4712530564298831e+01  3.7575418609102933e+01  3.5266408790754781e+01  3.5573212010756066e+01  6.1484288071278868e+01  6.2923109045910749e+01  6.2102870208466605e+01  6.1284462767151311e+01  6.1303075651125880e+01  6.1689535186389499e+01  6.0953413196478394e+01  4.5116235421511021e+01  3.5661802722410478e+01  4.6720747717980231e+01  6.8215115132738944e+01  5.0867189560716447e+01  5.0327775933177733e+01  3.6325969622633330e+01  3.7322372832194240e+01  3.7372370731385665e+01  3.8590092271806775e+01  3.7917983659180813e+01  3.7045027452731851e+01  5.0386739148640160e+01  4.9137122874330203e+01  4.9522073892149493e+01  6.1002815647187404e+01  6.1258276469947404e+01  3.7810655871862544e+01  3.8679350695386027e+01  4.1106026833029254e+01  4.1731516306629025e+01  4.6284653337373996e+01  3.9996562793902385e+01  3.9872817784992840e+01  3.9095142676768724e+01  4.7549555510109698e+01  7.4931334722412885e+01  5.1198991648474276e+01  5.3273120959672937e+01  5.2654358293427805e+01  6.7482543385692580e+01  6.8161937206470924e+01  6.6813342569190013e+01  5.1318635472161056e+01  5.3412480425081071e+01  5.1432699854018722e+01  4.4950434825440809e+01  5.5201971276599622e+01  5.5058331850739528e+01  3.8118461437745587e+01  3.7821796248382057e+01  6.4260044024396748e+01  6.3899047509796489e+01  6.5054037474556807e+01  3.8380820686780410e+01  3.5961535077737302e+01  </DataArray> 
</PointData> 
</Piece>
</UnstructuredGrid>
</VTKFile>