<?xml version="1.0"?>
<VTKFile type="UnstructuredGrid"  version="0.1"  >
<UnstructuredGrid>
<Piece  NumberOfPoints="784" NumberOfCells="1320">
<Points>
<DataArray  type="Float64"  NumberOfComponents="3"  format="ascii">266913.131276 586512.314988 0  266738.13716 587762.325998 0  266363.132677 589012.328643 0  266175.641078 590169.601714 0  265666.575631 591040.7699119999 0  264875.64001 591687.766419 0  264900.636161 591845.049083 0  266088.14152 592012.3229499999 0  265561.959259 592661.17101 0  264288.136855 593037.368683 0  263865.194033 593999.8486949999 0  263850.641856 593236.729596 0  263625.634872 592756.525286 0  262689.574249 593299.848918 0  262475.636737 594003.0907310001 0  261934.554452 594340.929792 0  261725.631329 594932.094409 0  261729.256443 595728.498809 0  262138.136044 595012.330523 0  262288.141035 596262.333669 0  261488.994028 597511.480605 0  261234.15567 598316.338928 0  260815.635063 599014.863821 0  261400.643658 599389.7367680001 0  261322.963374 600022.185065 0  261119.455248 600931.061306 0  261607.436504 601293.0629359999 0  260807.446929 602089.899812 0  260025.642878 602988.868697 0  259613.135827 603937.3854499999 0  259050.643123 604100.987861 0  258411.880065 603988.6335979999 0  257764.357469 604449.872569 0  257971.239668 605320.429125 0  258041.396867 605740.635381 0  257188.143339 606987.394312 0  256038.141198 608112.3554550001 0  254788.141633 609087.4026939999 0  253588.140656 609812.362881 0  252338.135706 609737.4048949999 0  251088.138116 609787.404055 0  249963.12851 610287.399466 0  248613.130524 610462.365857 0  247363.132198 610687.407659 0  246113.130532 610837.411551 0  245832.347438 610918.209918 0  245016.946433 610958.5639439999 0  244313.129646 610762.372259 0  244400.622144 611378.093316 0  243939.669208 612460.8930899999 0  242960.649733 611984.892792 0  242170.381438 611919.647351 0  241888.122919 611112.375656 0  241393.380757 610467.6456149999 0  240594.157528 611306.369822 0  240525.621947 610804.648112 0  240363.123632 610512.3745050001 0  239113.123247 610262.374278 0  239813.12126 609037.412459 0  240588.122952 607812.368199 0  241013.119545 606625.9534560001 0  241454.373249 605724.888025 0  242238.120107 604687.3993 0  243088.121248 603462.362766 0  242860.319451 603007.3932640001 0  241563.116617 603812.361344 0  241778.400913 604327.642217 0  242059.837234 604824.879102 0  241475.620201 604923.2402390001 0  241462.182234 605449.881372 0  240906.219606 605674.888222 0  240241.856192 606891.125066 0  239891.734044 607841.012479 0  239048.653431 608724.889805 0  238118.054545 608974.895967 0  238888.111029 607337.406468 0  239738.119992 606212.362729 0  240288.12044 605687.4075229999 0  240380.212307 604729.521696 0  239347.309632 604603.204501 0  238888.112036 604387.408787 0  237913.11173 604687.401386 0  236784.172023 604499.882783 0  236883.408793 603717.08334 0  236154.933927 603595.565605 0  235688.103943 602912.369264 0  235763.108033 601662.366516 0  236363.110805 600412.35884 0  236738.107995 599162.356577 0  236525.607944 598482.2412899999 0  236138.109208 599362.357613 0  235725.063048 600325.4466510001 0  235091.948926 601408.5220979999 0  235188.10921 600312.366344 0  234375.602405 600833.9674270001 0  234663.109308 599912.358011 0  234138.105122 600062.365644 0  233955.307245 599029.561063 0  233338.103791 598387.401556 0  233988.09795 597862.356384 0  235138.101489 596637.3947750001 0  235563.1039 595387.392428 0  236513.103639 594212.356312 0  237163.10684 592987.3929869999 0  238313.103031 591862.3515540001 0  239513.107028 590812.3512640001 0  240638.102135 589787.387271 0  241463.109549 588587.378486 0  242294.489816 587443.735215 0  242913.101099 586512.341804 0  243544.066915 585474.859604 0  243040.448415 585184.975583 0  242438.10214 585337.38015 0  241313.102353 586562.339499 0  240538.107104 587787.382449 0  240114.641085 588588.939407 0  239388.100256 589437.382238 0  238188.104456 590512.346358 0  236938.100507 591362.349798 0  235813.10453 592537.396388 0  234864.502938 593178.7753880001 0  234463.097651 592862.357267 0  235113.0965 591662.3545979999 0  235713.101522 590412.346099 0  235777.688431 589976.7582779999 0  234943.583145 590706.265132 0  234462.482256 591490.2841159999 0  233801.497784 592112.940187 0  233388.099101 591787.394208 0  234013.093099 590437.393065 0  234776.217248 587148.7548100001 0  235163.093726 586562.3486189999 0  235313.098918 585483.229012 0  235250.59732 584662.298153 0  235588.093896 583337.379493 0  236329.432041 582199.858992 0  237188.096234 581462.3349939999 0  237463.088521 580212.335511 0  238350.592558 579057.652616 0  238591.415797 578574.847681 0  238313.094106 577612.328905 0  239229.696732 577695.769664 0  240195.161018 577513.008613 0  240614.996733 577149.8518770001 0  240663.091715 577412.332622 0  240288.092486 578662.334085 0  239942.357258 579508.095811 0  240438.100019 580212.3334220001 0  241338.095553 580387.375355 0  241238.099828 579137.369157 0  241788.097003 577887.370889 0  241983.554649 577241.9220939999 0  242054.178239 576927.8105029999 0  242588.100699 575737.366175 0  243149.324833 574898.583978 0  243695.278626 573919.517981 0  244268.494418 573724.8454239999 0  244995.134063 573930.2767810001 0  245417.314363 573391.601898 0  243450.599125 571859.479773 0  245776.797908 572599.8353060001 0  246779.639852 572973.285167 0  248034.741935 573186.082054 0  249413.10651 573162.3205520001 0  250496.922226 573271.1521899999 0  251613.105126 573237.3551319999 0  252421.824577 572846.032906 0  253256.245022 572580.4733130001 0  253739.471933 571960.9547369999 0  254174.511864 572149.8346569999 0  254484.944333 571684.194807 0  254384.108649 570891.346712 0  254344.002752 570218.26407 0  255025.609604 570829.0294979999 0  255715.005913 570489.264586 0  256218.846343 570774.828355 0  256834.349083 570508.5908 0  257390.092515 570014.308325 0  257624.431042 568493.478911 0  259355.811717 569380.021819 0  260033.372814 569617.066669 0  262679.741751 570320.699974 0  263289.115756 569524.817815 0  263463.114338 570512.301061 0  264638.198419 570687.3443539999 0  265058.220065 571334.378467 0  265447.561421 572077.90485 0  265488.125257 573137.3446020001 0  265131.937715 573963.293593 0  265432.389648 575093.068786 0  265638.122314 576338.029955 0  265750.630817 577371.8281319999 0  265738.570663 578561.9098850001 0  265875.630866 579139.630549 0  266213.129247 579862.311842 0  266563.130472 581112.314509 0  266238.135356 582362.310259 0  265938.12863 583612.320897 0  265738.131342 584762.3210189999 0  266875.638633 585365.358768 0  264018.7239399826 593650.4646671159 0  262236.3944351029 595831.1252656333 0  241846.246678 605206.1436625 0  240200.622106 608424.8903290001 0  240943.4862974102 610939.7757535663 0  236550.6094 599787.3577085 0  238528.1212051503 608102.9081793013 0  244413.4891967989 572609.5960859474 0  236382.0474488751 598808.3067022427 0  235369.601910944 600933.5380148316 0  235413.099011 591037.3503485 0  235446.2251831186 590266.6553871984 0  240475.5921005 578037.3333535 0  240413.173949154 577324.4280286073 0  240574.037899 606283.0066440001 0  263857.9179445 593618.2891454998 0  264153.4303974913 593343.916675058 0  242042.1833925 604946.7714812499 0  241650.3099635 605465.51584375 0  244613.6985165 572229.6575395 0  236631.8579695 598822.2989335 0  235140.029068 600860.444221 0  241767.7287175 604874.0596705 0  242140.15174975 604817.0853906251 0  234781.8558075 600573.1668855001 0  242091.167571125 604881.9284359375 0  234519.3558565 600373.162719 0  254604.8337712102 583989.0014118921 0  250699.5846056537 594617.3297041012 0  250540.4796469513 602258.2940568649 0  248483.7490186612 580334.7345534252 0  258549.2190328319 577893.951823392 0  257067.0067473103 590016.5327808241 0  243285.0921999099 596333.923437875 0  248333.1386145258 589098.0389905117 0  256142.8445072741 595883.3911551933 0  260245.1368072523 583315.2785712298 0  253472.3380211276 578932.2908163272 0  246432.3347504817 599884.5019511909 0  261555.9240922556 588041.186709004 0  247293.1100123104 605823.8307887657 0  246458.2798550911 593168.8646574575 0  252840.0183145193 588226.5564648228 0  249828.2874404451 584740.7888937403 0  255409.5660975206 600458.8956828594 0  260819.9733392385 574219.403683011 0  252584.2262054711 605722.6603825617 0  254049.8830611471 592547.4852571967 0  250015.4356193061 598425.2225922942 0  245872.072249477 577604.9761853142 0  262002.1583249522 579753.4663046852 0  257732.6630933878 586227.970805314 0  250242.5556457866 577017.3316409125 0  244921.6453001869 581816.6358421432 0  256520.3890639471 580904.824006648 0  240779.0970645865 599524.6679555867 0  257100.1829219198 574459.5922545703 0  239912.2630002034 595231.1172704464 0  244703.0875078634 590068.6945953515 0  242549.5490268674 592874.3693043783 0  251586.0465921376 581796.2215047925 0  246643.189997516 596527.447801719 0  251049.7658069622 591057.6752245198 0  253014.5731561695 596998.6601086652 0  238680.2197353724 584542.2309791476 0  259715.365803504 591937.1938619445 0  254097.157218761 575731.4494927844 0  246806.6408589328 586139.0877599345 0  246136.1179750556 602959.471719323 0  253520.7033332401 602835.180253843 0  244125.4295793909 607538.9817227355 0  252546.8895354472 599881.3279113505 0  258289.0983523553 600397.640191779 0  247518.7952199645 583037.3718217331 0  263140.3959879661 582529.2228421422 0  262894.8586894067 585442.3590432997 0  256968.6320599076 593040.7691844478 0  243573.0187527719 600218.2795730785 0  258888.5766127351 595139.7745218446 0  262588.7569809347 576734.8569237856 0  259318.4257992262 580601.2540325444 0  249963.3812725965 607065.7205847671 0  257494.5307999607 583482.5893534871 0  258906.4757205145 572278.8089438241 0  237751.446593475 587300.5805003279 0  255142.4708720699 604956.7580261135 0  258485.4978753244 597756.9250383095 0  255516.7820591553 587791.39641967 0  239758.4692108706 601926.8203218657 0  255873.0092222999 577739.5085867504
[...]
<PointData  Scalars="f_32-1"> 
<DataArray  type="Float64"  Name="f_32-1"  format="ascii">4.0602472190425232e+01  4.1958225640017609e+01  4.4001894303222812e+01  4.6091843878800077e+01  4.7712999027474353e+01  4.9459845357814984e+01  5.0054254792251641e+01  4.9867220180008260e+01  5.0488402004491014e+01  5.2050417292442198e+01  5.3241946106822610e+01  5.2567396804175516e+01  5.2111174076110260e+01  5.4067295709709903e+01  5.5332258873871709e+01  5.6392709254342300e+01  5.7636634497397864e+01  5.8807032635658409e+01  5.7993073672924154e+01  5.9228812273338711e+01  6.1971626994175963e+01  6.3671807689811160e+01  6.5423126615469101e+01  6.6155278676436936e+01  6.6827853179148633e+01  6.8449212539831649e+01  6.8783349039165302e+01  6.9948071803015367e+01  7.1530105363548046e+01  7.2482569704954884e+01  7.2694333622298601e+01  7.2954899459822940e+01  7.3698354111320683e+01  7.4415731452750109e+01  7.4578183045331755e+01  7.5619835164843479e+01  7.6979253939455575e+01  7.8426397874625735e+01  7.9676716629572240e+01  8.0464168382186998e+01  8.1599043030428760e+01  8.2747458403645467e+01  8.3757083780350783e+01  8.4592336978574281e+01  8.5349683549380572e+01  8.5500790122132628e+01  8.5843726152064065e+01  8.6233466235795916e+01  8.6625988130185931e+01  8.6997852041284958e+01  8.7127126229795522e+01  8.7261500184396553e+01  8.7151753220749541e+01  8.7138452356241345e+01  8.7562134331615070e+01  8.7493206084344735e+01  8.7453147160542215e+01  8.7680995394786805e+01  8.7147965186098091e+01  8.6363875811730921e+01  8.5596859855242229e+01  8.4834833479657476e+01  8.3783352581432339e+01  8.2176120369431516e+01  8.1921215462777639e+01  8.3776776976054975e+01  8.4246579239400319e+01  8.4313446272795673e+01  8.4597071275535427e+01  8.4922159962542480e+01  8.5279312233387003e+01  8.6255383762353134e+01  8.6731294283152778e+01  8.7250352408733832e+01  8.7450685506065682e+01  8.6817264459096577e+01  8.6105908092000760e+01  8.5574054929888732e+01  8.4999458257555446e+01  8.5402425842665167e+01  8.5670743547867971e+01  8.6147037537305380e+01  8.6378213449389051e+01  8.6273161725483334e+01  8.6397933866545173e+01  8.6385042762422273e+01  8.6046597228836418e+01  8.5128680110854816e+01  8.3883464376836315e+01  8.3670791342855367e+01  8.4995857062325697e+01  8.5757287078954420e+01  8.6125841962709018e+01  8.5901608388894715e+01  8.6205538033789153e+01  8.5963541068385879e+01  8.6057179894303374e+01  8.5849486244112271e+01  8.5779120239096414e+01  8.5396705722278426e+01  8.3158654305867145e+01  8.0691112867638708e+01  7.7216570650143481e+01  7.3953267792589102e+01  7.0668688584062238e+01  6.8464937945140818e+01  6.6986758607667483e+01  6.5636217410325941e+01  6.4203664647365997e+01  6.2913424004770796e+01  6.1421737591715690e+01  6.1474511535283511e+01  6.2295564172538150e+01  6.4236047236675788e+01  6.5654049492979269e+01  6.6393767198134867e+01  6.7284265518054653e+01  6.8888046567970051e+01  7.1278751349291753e+01  7.5067776730920201e+01  7.6993371478228639e+01  7.7034628611151930e+01  7.4512333001266654e+01  7.1443145365086863e+01  7.0947145704045525e+01  7.3466267992894359e+01  7.5611256302327703e+01  7.6895537454661920e+01  7.6980574269814070e+01  7.4156443094427999e+01  6.9037442890158019e+01  6.8321090655444991e+01  6.7391023649938873e+01  6.6920036283271273e+01  6.5924778046646736e+01  6.4589683024874432e+01  6.3255765727548031e+01  6.2024911290958222e+01  6.0678572603120344e+01  6.0108579808366898e+01  5.9762535118001814e+01  5.9405734335116939e+01  5.8600349646907709e+01  5.8325994845436895e+01  5.8360302013096067e+01  5.9258673870949892e+01  6.0061988799960901e+01  6.0182586703062825e+01  5.9410941039656848e+01  5.8509025611956666e+01  5.7238178275035558e+01  5.6562918256322291e+01  5.6248925823108031e+01  5.4686798979687445e+01  5.3177009419166666e+01  5.1503754400151664e+01  5.0913246949136983e+01  4.9919941781776664e+01  4.8610240880951132e+01  4.9216848071454649e+01  4.7895807095948797e+01  4.6877132095358050e+01  4.5255172913328856e+01  4.3263900090880327e+01  4.1930430196290892e+01  4.0495728347296186e+01  3.9256195481452572e+01  3.8041623309273035e+01  3.7162661424057546e+01  3.6745793943770011e+01  3.5760008285404986e+01  3.4929438330221309e+01  3.4637840146268871e+01  3.4568355779203358e+01  3.3745144375376562e+01  3.3347976676379083e+01  3.2370704483133707e+01  3.0636108551293081e+01  3.5085478562747817e+01  3.0143089213478515e+01  3.0885777539376488e+01  3.2276076115818540e+01  3.1645878399617533e+01  3.3962703566730909e+01  3.1375828954709050e+01  3.0794996239665270e+01  3.0958500003186320e+01  3.1531442233787981e+01  3.2159467850395508e+01  3.2828069445707200e+01  3.3664349009250714e+01  3.4652507326393824e+01  3.6041117976758706e+01  3.6280808480470675e+01  3.6315725681551328e+01  3.7458395493472523e+01  3.9881517020599645e+01  4.0730657114410853e+01  3.9903097639779951e+01  3.9878677902526157e+01  5.3058134413649114e+01  5.8754673685379778e+01  8.4323917189509757e+01  8.6777177282173000e+01  8.7483071678937961e+01  8.4531348985839259e+01  8.7201866465000663e+01  4.8801704225669617e+01  8.4333630982465763e+01  8.6039375531020696e+01  7.2924231558360333e+01  7.1899725597166423e+01  5.8747478101689879e+01  5.8385816466157983e+01  8.5842571996910166e+01  5.3059422566562262e+01  5.2663704143318029e+01  8.4058130976996722e+01  8.4587828562768067e+01  4.8786336597991948e+01  8.3582787650772147e+01  8.6037725092240279e+01  8.4371904199640781e+01  8.3923278731310646e+01  8.6123731535656219e+01  8.3991065364463950e+01  8.6124137924637253e+01  4.9606982084653716e+01  6.7003079145209810e+01  7.5231162360284003e+01  5.2727154445328836e+01  3.9081610897617018e+01  5.5513031858527285e+01  7.4079659397863395e+01  6.1446613065426838e+01  6.3785987295251957e+01  4.1895998149807291e+01  4.6061386499092038e+01  7.6000881401628035e+01  4.6002124035281156e+01  8.1137125856911240e+01  6.7678560110560340e+01  5.7286757381286662e+01  5.6610486988046290e+01  6.9882656679264002e+01  3.3666363267195791e+01  7.7104404052554827e+01  6.1542064472388226e+01  7.2008648137844233e+01  5.2501494589316209e+01  3.8060444663989280e+01  4.8745097487456000e+01  4.6003846902395210e+01  5.7642909747862483e+01  4.3544743387976375e+01  8.0189883345307493e+01  3.6636024702360302e+01  7.4564032244415046e+01  6.6277943203131798e+01  6.8942627825311305e+01  5.0180885580425389e+01  7.1986954562730247e+01  6.2545594081419928e+01  6.8293319371234745e+01  6.4584391203468698e+01  5.5474552133635022e+01  4.0162739158507200e+01  5.9306414728629477e+01  7.9188243356134734e+01  7.3907272219261372e+01  8.4733896875400845e+01  7.1505732997246341e+01  6.9056964337653838e+01  5.5699065348882549e+01  3.9620823457928729e+01  4.0900807016469301e+01  5.9784623754752360e+01  7.8244473611477559e+01  6.0137445857257525e+01  3.5055112745815599e+01  4.0397139523031171e+01  8.0394665470341977e+01  4.5224924983278292e+01  3.1071714057853367e+01  6.6948731195030959e+01  7.5026869514626895e+01  6.4562409306963502e+01  5.3866639066749620e+01  8.5303370492256661e+01  4.1117737127754737e+01  5.0097238408937301e+01  6.0549331595224956e+01  6.5458144750610472e+01  5.6339390659710268e+01  4.7102898757272293e+01  4.3045824719913071e+01  5.8155284679424717e+01  4.8397638386733625e+01  4.7894651888937702e+01  4.4020531932385929e+01  5.0114295467372564e+01  8.3748490420633175e+01  7.7635269796939625e+01  5.2576958171687174e+01  8.2357350963388612e+01  7.4984862476365890e+01  7.5552624613427412e+01  7.9673944379897577e+01  6.2238422016786878e+01  5.8503538199665094e+01  6.7436529869936820e+01  7.1669565468700512e+01  5.7927286446791179e+01  7.7768327803496874e+01  5.3260504925950258e+01  6.5034905971487291e+01  3.1912675475246616e+01  5.1569700742150800e+01  6.8783164981646692e+01  7.6328700685136539e+01  6.6021820643365587e+01  6.9858347712238995e+01  6.2386352817752226e+01  7.0344920710678565e+01  3.7037147339987563e+01  5.5796111863993659e+01  5.2812236436954421e+01  7.8999477977067940e+01  6.8449841388788897e+01  3.7901769435240979e+01  7.8475831990941032e+01  6.3408862614024805e+01  8.3860187364690702e+01  3.3077083833671423e+01  8.3948308389674324e+01  8.3899205682063652e+01  5.5008451633373042e+01  5.0473535982178667e+01  8.4002973735365387e+01  8.5047685073878483e+01  8.2151036457731834e+01  8.4634796701114297e+01  7.1170836650846724e+01  3.5972963224522054e+01  8.0065869746565582e+01  7.4987367222569759e+01  5.5867721796917316e+01  5.0052714929421207e+01  4.6423819233316173e+01  8.4665141135592023e+01  8.3951493243758094e+01  5.7679604189251506e+01  8.5214295243744800e+01  8.3081953679747343e+01  8.3493948528549083e+01  8.5317055223328609e+01  5.9876467897589194e+01  4.8585317838560208e+01  7.0171582620782942e+01  3.3899395606063074e+01  4.8288376352577195e+01  3.7819959990648890e+01  6.8308793347663809e+01  8.6478703277258973e+01  6.6040973356085019e+01  7.2514550682643289e+01  8.2857325208316212e+01  6.1284191414258451e+01  3.0454653621293780e+01  7.1438395526828657e+01  3.9927840151314129e+01  5.1731999402010437e+01  8.4312545017777126e+01  8.2373356050571630e+01  6.1206957537764303e+01  8.6490101058834128e+01  4.4410298972712361e+01  8.4864037280177740e+01  6.3130971240229364e+01  3.2120522202170825e+01  3.6104635851758431e+01  3.7504669327153280e+01  7.2114520236586827e+01  8.1165390318506425e+01  8.0303430842886044e+01  6.8048800267579992e+01  8.4429682885076616e+01  5.9225780364189774e+01  4.8543685618481184e+01  4.8393867273405782e+01  3.2102593524890807e+01  8.4022784216867322e+01  8.4191273398893301e+01  8.4245749140419406e+01  7.4680959236134740e+01  8.0837835914512297e+01  8.4391881652195636e+01  8.2848751735537618e+01  6.6256526821814660e+01  8.7347496605514124e+01  8.7193179308977903e+01  6.0854703826292123e+01  3.5336733360277833e+01  6.0237712213889502e+01  8.1309630149180023e+01  5.5332406113053430e+01  6.4046709702223126e+01  8.6765423412600114e+01  6.2747049343562324e+01  7.2696251194541077e+01  4.0599611177558735e+01  5.6235833863865999e+01  5.5519353188180617e+01  5.6755935145397935e+01  8.5351632294674431e+01  4.9880438834773514e+01  5.1103729201411532e+01  4.8832652186807707e+01  5.0858544253612557e+01  4.6857778028338736e+01  3.2805608331955909e+01  3.0463449075533500e+01  5.1616341032497807e+01  5.4684809544969902e+01  7.6289681951253996e+01  7.6129063691660676e+01  8.6988870177975031e+01  6.6370202415229457e+01  6.4520342097029740e+01  6.0392899798525981e+01  6.0071349094338288e+01  6.0673436623250957e+01  6.1847001165584274e+01  6.0776589624310660e+01  6.1479672959694064e+01  6.3318314545525162e+01  6.1806805424715989e+01  6.2567442044199950e+01  6.4384184138371310e+01  6.3481103575246308e+01  5.8394576145451850e+01  5.9960105364121034e+01  4.4265569733582026e+01  4.6362576481915056e+01  4.4628059812269925e+01  4.2600081122816697e+01  4.3642551476451445e+01  4.1254664125148693e+01  4.2995626836694981e+01  4.2291161022673975e+01  3.8933131265626180e+01  3.7745038902713993e+01  3.3699994158193988e+01  3.4117088148790621e+01  3.4293497732303294e+01  3.5446724812860339e+01  3.4990344835381343e+01  3.6225757019231182e+01  3.6844631870201781e+01  3.5945870919751982e+01  3.6284992744989125e+01  3.6891519990501983e+01  3.7135540640706040e+01  3.6770468395556755e+01  3.7582973155182479e+01  4.1052592229618192e+01  3.8934743719873396e+01  4.9917854019585008e+01  4.6455983998682321e+01  4.7552083661938433e+01  5.1580059630407114e+01  6.9913069354894745e+01  6.7741305139176319e+01  6.6178322103300516e+01  6.8011859201871431e+01  7.3434785433027415e+01  7.6436992713554545e+01  7.5166028253779373e+01  7.6482945633634827e+01  5.5145690351765133e+01  5.0424760524396142e+01  5.2748039992317459e+01  5.5160444205216685e+01  3.8644190380422508e+01  4.0423125729650266e+01  3.7860906845704001e+01  3.9446315549313084e+01  3.9353871414853074e+01  3.8763401333037258e+01  5.5215615924877390e+01  5.8779214718198524e+01  5.4535315597418055e+01  5.6896539277690984e+01  5.2843442947534193e+01  7.5038584938608508e+01  7.2513710232409892e+01  6.2285675916803200e+01  6.0319715508532781e+01  6.3628530621229395e+01  5.9706125103939804e+01  6.3175181296135428e+01  6.1851581463076698e+01  6.2832148037374736e+01  6.6119390157527661e+01  6.4468048300543757e+01  3.9855089490461928e+01  4.0284813625836513e+01  4.1273924997736408e+01  4.1299308698943292e+01  4.5207938795116256e+01  4.4701294213342457e+01  4.8271541505662448e+01  4.2809284419632810e+01  4.3294254649864492e+01  4.6536870218323379e+01  4.7583799613565219e+01  7.4272077778647315e+01  7.7628147525035743e+01  7.6245977682196752e+01  7.7828313803615472e+01  8.0201089902776161e+01  6.9515077800697185e+01  6.7234400968621088e+01  6.8599202888786877e+01  6.8362888767664487e+01  5.5663787543334465e+01  5.8395334102266489e+01  5.7364359977364039e+01  5.5034514942454571e+01  7.2048745869842350e+01  7.0129422609399924e+01  6.9481170264281772e+01  6.8302613681901207e+01  3.5143849366977442e+01  3.3639193359065978e+01  6.1545905024312923e+01  6.1286966287938021e+01  5.9795339210192026e+01  7.1909040606480431e+01  7.0354519351791438e+01  7.3637014870828025e+01  7.0770131074728724e+01  5.4539594676400746e+01  5.0379541188407856e+01  5.1912359702690203e+01  5.3353649821446467e+01  5.0574162943254635e+01  5.2172478716368929e+01  3.8643927695768198e+01  3.7174613253594309e+01  3.9212869110391757e+01  3.7584242037182030e+01  3.7978978987823453e+01  3.8203607670168843e+01  4.7015465947638070e+01  5.1600092873960492e+01  4.9379613744439851e+01  5.2056996521571186e+01  4.2749536425280525e+01  4.7171786401960397e+01  4.6919746347972442e+01  4.8464038751172161e+01  4.2945239762237456e+01  4.5199024856545662e+01  5.8607872499069749e+01  5.8896503378128955e+01  5.6718327597397362e+01  5.8259206950421827e+01  4.1778925574941816e+01  4.4306374552628682e+01  4.2270851354039856e+01  4.5406578060795482e+01  3.8783395443557751e+01  3.4623041808237922e+01  3.8923599699861910e+01  3.6698243933904671e+01  3.6284220147497692e+01  3.5335823486195913e+01  3.7353154628867621e+01  6.7294077933280576e+01  6.3730296756314914e+01  6.8255533309279528e+01  6.6071827693989064e+01  6.9633285816696102e+01  4.8706999824756437e+01  4.9341981752099819e+01  7.0173995033768776e+01  6.4229852570973549e+01  6.0378898402854851e+01  6.0101760720916722e+01  6.2847455050116125e+01  7.0019680725704674e+01  6.7876184464755411e+01  6.3455366772195624e+01  6.3681810241299559e+01  5.7364202887414223e+01  5.2573356230090376e+01  4.1614277560143023e+01  3.9473208062489434e+01  3.8292982397068151e+01  5.8613676345099421e+01  6.0879091577431325e+01  7.7338811756545056e+01  7.8459770572686111e+01  7.2658923239478170e+01  7.5709781575046051e+01  7.2726698442059046e+01  7.3251350602458061e+01  6.9101366415071709e+01  6.7701517202006357e+01  5.9730110862770310e+01  3.8739288963727255e+01  5.9801047567826906e+01  5.8378307026381982e+01  3.5462397958401553e+01  3.7261147738831255e+01  3.5315673208645819e+01  4.2632663641865499e+01  4.4738027384603946e+01  5.5906447621503574e+01  5.2456047199630561e+01  5.3691841305685948e+01  5.0036648402427460e+01  6.0201948694476691e+01  6.0911159393776458e+01  6.0714385103983112e+01  6.1672293197824494e+01  6.5072270304336087e+01  6.4646178267011095e+01  5.5378634738449982e+01  4.9771106868396323e+01  4.9757518710932125e+01  5.0623864828939453e+01  4.9298607844495095e+01  4.6120431617693917e+01  4.6898697530790400e+01  5.5787208221314167e+01  5.2800737584420332e+01  7.6554802854702302e+01  5.5580232995100943e+01  5.3293054671680956e+01  6.3706162486352120e+01  6.8915777511404457e+01  6.8523443766377767e+01  6.7247102956764152e+01  3.7923584033612251e+01  3.3930832723345048e+01  3.6895753266146997e+01  6.0570116221890487e+01  3.7185656875769972e+01  6.2052210498560648e+01  4.2286561061007660e+01  3.8362338892411415e+01  6.1780628975015581e+01  5.0920056229048612e+01  6.9040990312188669e+01  3.9042054591720728e+01  3.9475677827246336e+01  3.8591745040339354e+01  3.9101633395786990e+01  3.8328775128234490e+01  6.2488528179429721e+01  4.5918531316410217e+01  4.7596849640309159e+01  4.7203178878223525e+01  7.6968213352800561e+01  5.9972040356234665e+01  5.6544160963256608e+01  5.6063963093737328e+01  5.6198639807867934e+01  3.5132754780269579e+01  7.1035548067109929e+01  7.1442817324828724e+01  3.8920846394920687e+01  3.8347689549079043e+01  4.9487214837211965e+01  5.0539839715581820e+01  4.4253849833279041e+01  5.9718815494775676e+01  6.2677651673317243e+01  6.3525613198312072e+01  6.1477737303776742e+01  6.3651116673084410e+01  4.1313367985744776e+01  3.9631946761653616e+01  3.9591678277231203e+01  3.9162260057339630e+01  7.0307450311375831e+01  3.9903860935634484e+01  4.1044562723190580e+01  4.1516969226052467e+01  5.4188609754963039e+01  5.4805561008050333e+01  5.4904118590847176e+01  5.3168721188796006e+01  4.2398284353944632e+01  3.9958541626968241e+01  4.1614599250887515e+01  5.1318616611673555e+01  7.5091675981580750e+01  7.6049831224066537e+01  7.6645091007768585e+01  6.2540275035849561e+01  6.8173668462980856e+01  5.4393851993853836e+01  5.2455237412561495e+01  5.0863962873053083e+01  5.2948412448722287e+01  6.7794152492261105e+01  6.2094637446332740e+01  6.2854307014943458e+01  3.8330347175015291e+01  3.8130079503952231e+01  3.7049377326538561e+01  5.3998167166232079e+01  5.7754720666782056e+01  5.9423304185715928e+01  5.3860407669863271e+01  6.8899698160004888e+01  3.7173223399826696e+01  3.8122564462341387e+01  3.7797163827333726e+01  6.1938525435534586e+01  6.1486682216610639e+01  6.1675897804055218e+01  4.3683042237597995e+01  4.4799725955967496e+01  4.5252185647246733e+01  3.7979933794639877e+01  3.5728475099043159e+01  3.6342125584506377e+01  6.2665661859734740e+01  6.3588548853862193e+01  6.3123126374442570e+01  6.2216660727307783e+01  6.2408673752826928e+01  6.2264799290769417e+01  6.2311698680267668e+01  4.5343438423212866e+01  3.6562027954868917e+01  5.1113656260224509e+01  7.0375550787836289e+01  5.3480655736306119e+01  5.3370989041463062e+01  3.8830124943387247e+01  3.9968694915030810e+01  3.9361544744047222e+01  4.0399072016948367e+01  4.0532528966670185e+01  3.9014499067755040e+01  5.3850449385208179e+01  5.3597561880166666e+01  5.2686291931488228e+01  6.3506711661607497e+01  6.2662971221385170e+01  3.9203502283566323e+01  3.9447137648952314e+01  4.3841740968533713e+01  4.3804278500437903e+01  4.8130083198042882e+01  4.2532953278295217e+01  4.2888679314262262e+01  4.2586806332268822e+01  4.8450985457968073e+01  7.6936316336231570e+01  5.5860682337688850e+01  5.7083392343700751e+01  5.5273646246083217e+01  6.8955603550754390e+01  6.9497763633584540e+01  6.8458796646590628e+01  5.2545095195534195e+01  5.4385860144142775e+01  5.3040554907637421e+01  4.5639077981402231e+01  6.0528541450284273e+01  5.6325816407973385e+01  4.0376006112136132e+01  3.8682179253243653e+01  6.8311349538716229e+01  6.8522637378245705e+01  6.8947971678012252e+01  3.8707435063979780e+01  3.7338153200861605e+01  </DataArray> 
</PointData> 
</Piece>
</UnstructuredGrid>
</VTKFile>