<?xml version="1.0"?>
<VTKFile type="UnstructuredGrid"  version="0.1"  >
<UnstructuredGrid>
<Piece  NumberOfPoints="784" NumberOfCells="1320">
<Points>
<DataArray  type="Float64"  NumberOfComponents="3"  format="ascii">266913.131276 586512.314988 0  266738.13716 587762.325998 0  266363.132677 589012.328643 0  266175.641078 590169.601714 0  265666.575631 591040.7699119999 0  264875.64001 591687.766419 0  264900.636161 591845.049083 0  266088.14152 592012.3229499999 0  265561.959259 592661.17101 0  264288.136855 593037.368683 0  263865.194033 593999.8486949999 0  263850.641856 593236.729596 0  263625.634872 592756.525286 0  262689.574249 593299.848918 0  262475.636737 594003.0907310001 0  261934.554452 594340.929792 0  261725.631329 594932.094409 0  261729.256443 595728.498809 0  262138.136044 595012.330523 0  262288.141035 596262.333669 0  261488.994028 597511.480605 0  261234.15567 598316.338928 0  260815.635063 599014.863821 0  261400.643658 599389.7367680001 0  261322.963374 600022.185065 0  261119.455248 600931.061306 0  261607.436504 601293.0629359999 0  260807.446929 602089.899812 0  260025.642878 602988.868697 0  259613.135827 603937.3854499999 0  259050.643123 604100.987861 0  258411.880065 603988.6335979999 0  257764.357469 604449.872569 0  257971.239668 605320.429125 0  258041.396867 605740.635381 0  257188.143339 606987.394312 0  256038.141198 608112.3554550001 0  254788.141633 609087.4026939999 0  253588.140656 609812.362881 0  252338.135706 609737.4048949999 0  251088.138116 609787.404055 0  249963.12851 610287.399466 0  248613.130524 610462.365857 0  247363.132198 610687.407659 0  246113.130532 610837.411551 0  245832.347438 610918.209918 0  245016.946433 610958.5639439999 0  244313.129646 610762.372259 0  244400.622144 611378.093316 0  243939.669208 612460.8930899999 0  242960.649733 611984.892792 0  242170.381438 611919.647351 0  241888.122919 611112.375656 0  241393.380757 610467.6456149999 0  240594.157528 611306.369822 0  240525.621947 610804.648112 0  240363.123632 610512.3745050001 0  239113.123247 610262.374278 0  239813.12126 609037.412459 0  240588.122952 607812.368199 0  241013.119545 606625.9534560001 0  241454.373249 605724.888025 0  242238.120107 604687.3993 0  243088.121248 603462.362766 0  242860.319451 603007.3932640001 0  241563.116617 603812.361344 0  241778.400913 604327.642217 0  242059.837234 604824.879102 0  241475.620201 604923.2402390001 0  241462.182234 605449.881372 0  240906.219606 605674.888222 0  240241.856192 606891.125066 0  239891.734044 607841.012479 0  239048.653431 608724.889805 0  238118.054545 608974.895967 0  238888.111029 607337.406468 0  239738.119992 606212.362729 0  240288.12044 605687.4075229999 0  240380.212307 604729.521696 0  239347.309632 604603.204501 0  238888.112036 604387.408787 0  237913.11173 604687.401386 0  236784.172023 604499.882783 0  236883.408793 603717.08334 0  236154.933927 603595.565605 0  235688.103943 602912.369264 0  235763.108033 601662.366516 0  236363.110805 600412.35884 0  236738.107995 599162.356577 0  236525.607944 598482.2412899999 0  236138.109208 599362.357613 0  235725.063048 600325.4466510001 0  235091.948926 601408.5220979999 0  235188.10921 600312.366344 0  234375.602405 600833.9674270001 0  234663.109308 599912.358011 0  234138.105122 600062.365644 0  233955.307245 599029.561063 0  233338.103791 598387.401556 0  233988.09795 597862.356384 0  235138.101489 596637.3947750001 0  235563.1039 595387.392428 0  236513.103639 594212.356312 0  237163.10684 592987.3929869999 0  238313.103031 591862.3515540001 0  239513.107028 590812.3512640001 0  240638.102135 589787.387271 0  241463.109549 588587.378486 0  242294.489816 587443.735215 0  242913.101099 586512.341804 0  243544.066915 585474.859604 0  243040.448415 585184.975583 0  242438.10214 585337.38015 0  241313.102353 586562.339499 0  240538.107104 587787.382449 0  240114.641085 588588.939407 0  239388.100256 589437.382238 0  238188.104456 590512.346358 0  236938.100507 591362.349798 0  235813.10453 592537.396388 0  234864.502938 593178.7753880001 0  234463.097651 592862.357267 0  235113.0965 591662.3545979999 0  235713.101522 590412.346099 0  235777.688431 589976.7582779999 0  234943.583145 590706.265132 0  234462.482256 591490.2841159999 0  233801.497784 592112.940187 0  233388.099101 591787.394208 0  234013.093099 590437.393065 0  234776.217248 587148.7548100001 0  235163.093726 586562.3486189999 0  235313.098918 585483.229012 0  235250.59732 584662.298153 0  235588.093896 583337.379493 0  236329.432041 582199.858992 0  237188.096234 581462.3349939999 0  237463.088521 580212.335511 0  238350.592558 579057.652616 0  238591.415797 578574.847681 0  238313.094106 577612.328905 0  239229.696732 577695.769664 0  240195.161018 577513.008613 0  240614.996733 577149.8518770001 0  240663.091715 577412.332622 0  240288.092486 578662.334085 0  239942.357258 579508.095811 0  240438.100019 580212.3334220001 0  241338.095553 580387.375355 0  241238.099828 579137.369157 0  241788.097003 577887.370889 0  241983.554649 577241.9220939999 0  242054.178239 576927.8105029999 0  242588.100699 575737.366175 0  243149.324833 574898.583978 0  243695.278626 573919.517981 0  244268.494418 573724.8454239999 0  244995.134063 573930.2767810001 0  245417.314363 573391.601898 0  243450.599125 571859.479773 0  245776.797908 572599.8353060001 0  246779.639852 572973.285167 0  248034.741935 573186.082054 0  249413.10651 573162.3205520001 0  250496.922226 573271.1521899999 0  251613.105126 573237.3551319999 0  252421.824577 572846.032906 0  253256.245022 572580.4733130001 0  253739.471933 571960.9547369999 0  254174.511864 572149.8346569999 0  254484.944333 571684.194807 0  254384.108649 570891.346712 0  254344.002752 570218.26407 0  255025.609604 570829.0294979999 0  255715.005913 570489.264586 0  256218.846343 570774.828355 0  256834.349083 570508.5908 0  257390.092515 570014.308325 0  257624.431042 568493.478911 0  259355.811717 569380.021819 0  260033.372814 569617.066669 0  262679.741751 570320.699974 0  263289.115756 569524.817815 0  263463.114338 570512.301061 0  264638.198419 570687.3443539999 0  265058.220065 571334.378467 0  265447.561421 572077.90485 0  265488.125257 573137.3446020001 0  265131.937715 573963.293593 0  265432.389648 575093.068786 0  265638.122314 576338.029955 0  265750.630817 577371.8281319999 0  265738.570663 578561.9098850001 0  265875.630866 579139.630549 0  266213.129247 579862.311842 0  266563.130472 581112.314509 0  266238.135356 582362.310259 0  265938.12863 583612.320897 0  265738.131342 584762.3210189999 0  266875.638633 585365.358768 0  264018.7239399826 593650.4646671159 0  262236.3944351029 595831.1252656333 0  241846.246678 605206.1436625 0  240200.622106 608424.8903290001 0  240943.4862974102 610939.7757535663 0  236550.6094 599787.3577085 0  238528.1212051503 608102.9081793013 0  244413.4891967989 572609.5960859474 0  236382.0474488751 598808.3067022427 0  235369.601910944 600933.5380148316 0  235413.099011 591037.3503485 0  235446.2251831186 590266.6553871984 0  240475.5921005 578037.3333535 0  240413.173949154 577324.4280286073 0  240574.037899 606283.0066440001 0  263857.9179445 593618.2891454998 0  264153.4303974913 593343.916675058 0  242042.1833925 604946.7714812499 0  241650.3099635 605465.51584375 0  244613.6985165 572229.6575395 0  236631.8579695 598822.2989335 0  235140.029068 600860.444221 0  241767.7287175 604874.0596705 0  242140.15174975 604817.0853906251 0  234781.8558075 600573.1668855001 0  242091.167571125 604881.9284359375 0  234519.3558565 600373.162719 0  254604.8337712102 583989.0014118921 0  250699.5846056537 594617.3297041012 0  250540.4796469513 602258.2940568649 0  248483.7490186612 580334.7345534252 0  258549.2190328319 577893.951823392 0  257067.0067473103 590016.5327808241 0  243285.0921999099 596333.923437875 0  248333.1386145258 589098.0389905117 0  256142.8445072741 595883.3911551933 0  260245.1368072523 583315.2785712298 0  253472.3380211276 578932.2908163272 0  246432.3347504817 599884.5019511909 0  261555.9240922556 588041.186709004 0  247293.1100123104 605823.8307887657 0  246458.2798550911 593168.8646574575 0  252840.0183145193 588226.5564648228 0  249828.2874404451 584740.7888937403 0  255409.5660975206 600458.8956828594 0  260819.9733392385 574219.403683011 0  252584.2262054711 605722.6603825617 0  254049.8830611471 592547.4852571967 0  250015.4356193061 598425.2225922942 0  245872.072249477 577604.9761853142 0  262002.1583249522 579753.4663046852 0  257732.6630933878 586227.970805314 0  250242.5556457866 577017.3316409125 0  244921.6453001869 581816.6358421432 0  256520.3890639471 580904.824006648 0  240779.0970645865 599524.6679555867 0  257100.1829219198 574459.5922545703 0  239912.2630002034 595231.1172704464 0  244703.0875078634 590068.6945953515 0  242549.5490268674 592874.3693043783 0  251586.0465921376 581796.2215047925 0  246643.189997516 596527.447801719 0  251049.7658069622 591057.6752245198 0  253014.5731561695 596998.6601086652 0  238680.2197353724 584542.2309791476 0  259715.365803504 591937.1938619445 0  254097.157218761 575731.4494927844 0  246806.6408589328 586139.0877599345 0  246136.1179750556 602959.471719323 0  253520.7033332401 602835.180253843 0  244125.4295793909 607538.9817227355 0  252546.8895354472 599881.3279113505 0  258289.0983523553 600397.640191779 0  247518.7952199645 583037.3718217331 0  263140.3959879661 582529.2228421422 0  262894.8586894067 585442.3590432997 0  256968.6320599076 593040.7691844478 0  243573.0187527719 600218.2795730785 0  258888.5766127351 595139.7745218446 0  262588.7569809347 576734.8569237856 0  259318.4257992262 580601.2540325444 0  249963.3812725965 607065.7205847671 0  257494.5307999607 583482.5893534871 0  258906.4757205145 572278.8089438241 0  237751.446593475 587300.5805003279 0  255142.4708720699 604956.7580261135 0  258485.4978753244 597756.9250383095 0  255516.7820591553 587791.39641967 0  239758.4692108706 601926.8203218657 0  255873.0092222999 577739.5085867504
[...]
<PointData  Scalars="f_32-1"> 
<DataArray  type="Float64"  Name="f_32-1"  format="ascii">4.0954538163271600e+01  4.2301969841914683e+01  4.4395335557290402e+01  4.6326709404740548e+01  4.7726335538176428e+01  4.9734739939111748e+01  5.0397623538730961e+01  5.0625726870080307e+01  5.0786483085043329e+01  5.1914621117416822e+01  5.2717434900519535e+01  5.2308785143941215e+01  5.2155714724443733e+01  5.4400677662253230e+01  5.5704456189239494e+01  5.6845688131569432e+01  5.8229139079322316e+01  5.9532721499030110e+01  5.9230367104186726e+01  5.9904126219346480e+01  6.2387398779666533e+01  6.4155019503542590e+01  6.6023585541642646e+01  6.6966593639747387e+01  6.7536057229683394e+01  6.8996667559963882e+01  6.9400163178778186e+01  7.0265805407474417e+01  7.1789322248448102e+01  7.2639355629369490e+01  7.2801888026396455e+01  7.3142974466205160e+01  7.4083904041034955e+01  7.4918300429061404e+01  7.5082583749357937e+01  7.6022837184806193e+01  7.7337475254521308e+01  7.8747027661228046e+01  7.9812697239414931e+01  8.0613351439290184e+01  8.1821897413845846e+01  8.2961038305383894e+01  8.3965593257277945e+01  8.4831335765920457e+01  8.5594997489983470e+01  8.5749702138843475e+01  8.6132573760118234e+01  8.6638708949523448e+01  8.7078562876109430e+01  8.7311314231074547e+01  8.7385284907088902e+01  8.7450679082838406e+01  8.7405232485635423e+01  8.7471529055146320e+01  8.7751378565474198e+01  8.7724901128354261e+01  8.7722576877209121e+01  8.7846497779220513e+01  8.7524875543695558e+01  8.6732536681728305e+01  8.5909138258930469e+01  8.5211595451474025e+01  8.4149283157317868e+01  8.2438609598569371e+01  8.2179460833199656e+01  8.4284208600233157e+01  8.4837396963334172e+01  8.4958895719270117e+01  8.5137907767578952e+01  8.5379959155837369e+01  8.5680112309344153e+01  8.6736414323565526e+01  8.7190102959896123e+01  8.7536822371407425e+01  8.7629217749447776e+01  8.7231954754659739e+01  8.6561649665748234e+01  8.5968029951660213e+01  8.5355343109851347e+01  8.5790463934374188e+01  8.6124443021710405e+01  8.6556376419665213e+01  8.6671815518935958e+01  8.6673168792919967e+01  8.6738406527814774e+01  8.6721438615292072e+01  8.6425606011146556e+01  8.5542084828027299e+01  8.4089333704610567e+01  8.3949444517773699e+01  8.5441066696135394e+01  8.6120423496957869e+01  8.6327685375116204e+01  8.6189223877815039e+01  8.6324741055134439e+01  8.6162640503501734e+01  8.6179447348474284e+01  8.5996018970706587e+01  8.5925833240692995e+01  8.5615915124067911e+01  8.3315551780496548e+01  8.0846706214762605e+01  7.7584163493745635e+01  7.4443863524271762e+01  7.1403900002618315e+01  6.9110236408237625e+01  6.7464036821995890e+01  6.6031519217478873e+01  6.4428674661376959e+01  6.3012737131931900e+01  6.1299228974949877e+01  6.0840259853191604e+01  6.1345100417932358e+01  6.4043629153920364e+01  6.5993095529418881e+01  6.6805829739884373e+01  6.7698365139904126e+01  6.9332853784581886e+01  7.1772057134755698e+01  7.5163345999451991e+01  7.6340166149665990e+01  7.6355214475924697e+01  7.4641008466462395e+01  7.1837084046368958e+01  7.1412630837415890e+01  7.3849071307476919e+01  7.5639066106978177e+01  7.6328339327765121e+01  7.6342973403655577e+01  7.4334042403096660e+01  6.9295565096572247e+01  6.8583430057507542e+01  6.7578334562187734e+01  6.7045258082509875e+01  6.6119552989155821e+01  6.4898017767303500e+01  6.3501506899235736e+01  6.2208649909424537e+01  6.0962676189143544e+01  6.0405458741709381e+01  6.0097661435428769e+01  5.9888017530942683e+01  5.9331140819202830e+01  5.9172839020763384e+01  5.9191755105189110e+01  5.9825378004043159e+01  6.0590691979633284e+01  6.0742891074886948e+01  5.9718493688150588e+01  5.8559441564532236e+01  5.7378499070769934e+01  5.6657739307778762e+01  5.6342007982936821e+01  5.4797503245951305e+01  5.3332380795943727e+01  5.1919041097200072e+01  5.1497185770093566e+01  5.0350811061232974e+01  4.8877906625409359e+01  4.9279626975762710e+01  4.8418772413562330e+01  4.7513697538329893e+01  4.5689544357145465e+01  4.3560450867216595e+01  4.2214944140597844e+01  4.0697943410108138e+01  3.9405659391412676e+01  3.8110404090002156e+01  3.7357487736697358e+01  3.6903643761303918e+01  3.5833289154519967e+01  3.5134408776869591e+01  3.5033417592684245e+01  3.4907061611211347e+01  3.4265732370665269e+01  3.3789451269866291e+01  3.2689721773700143e+01  3.1616593665789168e+01  3.3388633858016206e+01  3.0807913836735267e+01  3.1029581298567482e+01  3.2874232819719822e+01  3.2736087186811083e+01  3.3405891002026586e+01  3.2655809146424616e+01  3.1950457143475969e+01  3.1554811503772058e+01  3.1795632717334875e+01  3.2399119402421491e+01  3.3158560490006941e+01  3.3936496191328487e+01  3.4830824052294631e+01  3.5993174750103293e+01  3.6334346766339287e+01  3.6657991338836752e+01  3.8009235322447260e+01  4.0260003750571698e+01  4.1152490943739075e+01  4.0418266058442200e+01  4.0347518419708123e+01  5.2612729215654895e+01  5.9599202097155043e+01  8.4720964469962539e+01  8.7177332001652616e+01  8.7712573609269199e+01  8.4844771739855091e+01  8.7503235410602727e+01  4.8993489400913880e+01  8.4708895089999913e+01  8.6288308861697018e+01  7.3194565118496527e+01  7.2334807883387256e+01  5.9427890371197208e+01  5.9205682611198540e+01  8.6280847813975740e+01  5.2613242919588195e+01  5.2365465557998427e+01  8.4445983228693891e+01  8.4982745293118640e+01  4.8992350130718293e+01  8.3784184257260335e+01  8.6288198464214503e+01  8.4991058340938480e+01  8.4301473607055911e+01  8.6284681367947144e+01  8.4374732329955108e+01  8.6284436069837284e+01  4.9481208912031249e+01  6.7059396155021659e+01  7.5594092846645452e+01  5.2114927751775966e+01  3.7219798986339590e+01  5.4293914932350894e+01  7.4732457189416948e+01  6.1618238241137540e+01  6.4121314588140010e+01  4.1959989675218921e+01  4.4124048269994326e+01  7.5902515200807116e+01  4.6300761418321315e+01  8.1594623461546661e+01  6.7755623135256897e+01  5.5732008316196122e+01  5.6574190589165951e+01  6.9554910072559736e+01  3.3669025615325559e+01  7.7550494641340151e+01  6.1640594547698065e+01  7.1589268798433366e+01  5.2259059694958644e+01  3.7213801263373426e+01  4.7946481201308131e+01  4.5442418258350905e+01  5.7660924283085464e+01  4.3136421068417846e+01  8.0745597761965669e+01  3.6632588832112937e+01  7.5157253873373179e+01  6.5772930691973784e+01  6.9549486291776176e+01  5.0448013007100585e+01  7.2342288192980376e+01  6.1450757539520964e+01  6.8279695266080566e+01  6.4732516121630283e+01  5.5641433137823689e+01  3.9033485222282060e+01  5.9694811979657864e+01  7.9548533963590401e+01  7.4271213884648986e+01  8.5115305358118547e+01  7.1497875927401950e+01  6.9341380022072499e+01  5.6074339813285889e+01  3.9515257993114879e+01  4.1272719462430167e+01  5.9655950322707099e+01  7.8658690835593433e+01  6.0580005162166508e+01  3.5054528129332617e+01  3.9468101673598817e+01  8.0785264025711598e+01  4.5260402875678423e+01  3.1624189207869918e+01  6.7376971519122790e+01  7.5443313999783797e+01  6.4953541310626690e+01  5.1601690361996781e+01  8.5174369159696198e+01  3.9214674442879470e+01  5.0542492506816288e+01  6.0099050666896588e+01  6.5507278803751078e+01  5.6364460297550991e+01  4.7081790897819062e+01  4.3391607165341775e+01  5.7334210895907027e+01  4.8197398503730177e+01  4.7819518256642318e+01  4.4330051153251709e+01  4.9790333302644306e+01  8.4166350365103341e+01  7.8082366226944288e+01  5.2875490147006417e+01  8.2759868776369132e+01  7.5446581419094016e+01  7.4921477188129060e+01  8.0085721550090767e+01  6.2421201525002090e+01  5.8835701244026602e+01  6.7053823715349495e+01  7.2114110482971952e+01  5.8010332945789642e+01  7.8105181507092794e+01  5.1926473863547720e+01  6.5381578180940053e+01  3.2300705640851781e+01  5.0218636700453636e+01  6.8996879546485758e+01  7.6932361059386054e+01  6.5185959823462625e+01  7.0564873939122791e+01  6.2788757902245322e+01  7.0976864040186470e+01  3.6061759443914390e+01  5.4216411307534898e+01  5.3096320589822213e+01  7.9408753879617592e+01  6.8003078378458753e+01  3.7608307584540199e+01  7.8938491573101373e+01  6.3578572282448867e+01  8.4124811095743198e+01  3.3246884234148361e+01  8.4392101661957469e+01  8.4333420932401623e+01  5.5214385954016514e+01  5.0766041135306153e+01  8.4409784486399047e+01  8.5440559276356254e+01  8.2582290519801205e+01  8.4933929782976080e+01  7.1300704478794131e+01  3.6024515872421823e+01  8.0496653106390383e+01  7.5421149038762152e+01  5.6089135411902589e+01  5.0350329054490565e+01  4.6881839500989813e+01  8.5120542021854632e+01  8.4338665015304898e+01  5.8109189370393558e+01  8.5585329890073012e+01  8.3391158767166317e+01  8.3867970021968389e+01  8.5637290584938654e+01  5.9836550397681137e+01  4.8807663320788990e+01  7.0730766014515424e+01  3.4051890971350083e+01  4.8714257991767930e+01  3.7020340841000632e+01  6.8802877458868196e+01  8.6915012772265626e+01  6.6447934226379530e+01  7.2642245865071331e+01  8.3124421839512536e+01  6.0356041187063724e+01  3.0626121940844627e+01  7.1794021582335759e+01  3.9578697190926860e+01  5.2073234227068760e+01  8.4654885278792094e+01  8.2687721267708270e+01  6.1678873129047474e+01  8.6923998787263201e+01  4.3998594609100621e+01  8.5224633634572470e+01  6.3541091044410088e+01  3.2347772674992349e+01  3.6184495237767116e+01  3.7256321916378518e+01  7.2368938279623578e+01  8.1500832239945481e+01  8.0724537610660875e+01  6.8352582394648621e+01  8.4856452718533546e+01  5.9591809115845727e+01  4.8743180246957948e+01  4.8734242174151611e+01  3.2243497637782170e+01  8.4410947587702879e+01  8.4584914883665363e+01  8.4653468825333434e+01  7.5148439320512196e+01  8.1211942940935486e+01  8.4787463775227778e+01  8.3224203487935071e+01  6.6626446955911405e+01  8.7641348013908754e+01  8.7563650167633625e+01  6.1004144893243875e+01  3.5120673311441884e+01  6.0609900882169249e+01  8.1712224024416173e+01  5.5677870297385915e+01  6.4399037208284739e+01  8.7168431356043442e+01  6.1973748298838530e+01  7.3093591937622165e+01  4.0783461837227854e+01  5.6381912930739773e+01  5.5610441170814489e+01  5.6966441591378903e+01  8.5680796141498135e+01  5.0183205739228093e+01  5.1147123427797965e+01  4.9156250185817363e+01  5.1015968681439226e+01  4.7149818378875509e+01  3.2836590874820217e+01  3.0872014349322221e+01  5.2001877129063345e+01  5.4912964176819592e+01  7.5955427212425363e+01  7.5842140877865674e+01  8.7387736203671736e+01  6.6739141334353732e+01  6.4877579949273454e+01  6.0754845228615920e+01  6.0235188286231853e+01  6.0528098992701558e+01  6.0983544752231346e+01  6.0472584003799021e+01  6.0641523238471095e+01  6.2608429957317547e+01  6.0809042579354475e+01  6.1376131774684090e+01  6.4110086098595929e+01  6.2632312805019765e+01  5.8548748688020360e+01  6.0083838580356755e+01  4.4534745306398804e+01  4.6392233961685463e+01  4.4538817274094669e+01  4.2881915595945159e+01  4.3540512028582732e+01  4.1499505449272910e+01  4.2872521548821005e+01  4.2208555385005987e+01  3.8875843630033621e+01  3.7652730077466302e+01  3.3861311734318321e+01  3.4352285359748109e+01  3.4353180089632723e+01  3.5439267674620780e+01  3.4865593050690599e+01  3.6197567383769027e+01  3.6406172198978638e+01  3.5557016105024175e+01  3.6491665915964255e+01  3.6527488467012603e+01  3.7117993485730807e+01  3.6613893989563373e+01  3.7732311073749962e+01  4.0632005376308399e+01  3.8866343843845613e+01  4.8448009454719937e+01  4.6528047868379367e+01  4.7248930141962767e+01  5.0932407147647893e+01  6.9050389842467254e+01  6.7640686695801804e+01  6.6343108815410531e+01  6.8015301301782429e+01  7.3763008671976820e+01  7.6852080435134596e+01  7.5269868052044146e+01  7.6794096033129847e+01  5.4670267315307605e+01  5.0143429998660004e+01  5.1185769461108613e+01  5.3410239846768306e+01  3.7480764010759557e+01  3.9129550137429497e+01  3.7046133987567032e+01  3.8029958786357767e+01  3.7536597478232338e+01  3.7019318910322667e+01  5.5065801769004970e+01  5.7417611395843309e+01  5.2777405763248638e+01  5.5542786281658159e+01  5.2018048007964424e+01  7.5205477932237585e+01  7.2505480036341169e+01  6.1363281557390820e+01  6.0678204029290093e+01  6.3317721821864794e+01  5.9879263980944607e+01  6.3265658457177935e+01  6.2208439070389367e+01  6.3118899882750640e+01  6.6309530748873868e+01  6.4860659490297124e+01  3.8935118291972053e+01  4.0093714649024392e+01  4.1550240084879036e+01  4.0886997931919524e+01  4.4145144996899596e+01  4.3524911700790668e+01  4.7741728618903380e+01  4.1064269458772486e+01  4.1569292302116118e+01  4.5719500857535863e+01  4.6384323619890225e+01  7.3869654615716527e+01  7.7696433189329184e+01  7.5398428268423089e+01  7.8127288640756021e+01  8.0623841521382133e+01  7.0055404136619828e+01  6.6592685330581347e+01  6.9005255920182961e+01  6.7917470963007744e+01  5.3490860862081327e+01  5.6734633192392018e+01  5.6776657972552542e+01  5.3284214896366599e+01  7.2101743965885063e+01  6.9911334095386081e+01  6.9546428855028068e+01  6.7825036883287012e+01  3.5056198810234235e+01  3.3913227876881820e+01  6.1614978429028575e+01  6.0739764294978698e+01  5.9607848617788726e+01  7.1812059315995555e+01  6.9930841293137732e+01  7.3414046489596842e+01  7.0133504452684903e+01  5.4272011822545899e+01  5.0351399814663814e+01  5.1126662253184548e+01  5.2642463141240611e+01  5.0728435370729507e+01  5.2395837718921257e+01  3.7804640003330363e+01  3.6700193771650667e+01  3.8061491783804733e+01  3.6835398117185271e+01  3.7289094603335130e+01  3.7329880759995163e+01  4.6540060573085036e+01  4.9749547749209391e+01  4.8667676474655657e+01  4.9848916236046371e+01  4.1524671012650792e+01  4.6713696908056122e+01  4.6565810448454393e+01  4.7947526476850634e+01  4.2157586198134311e+01  4.4644619178097187e+01  5.7770195641137548e+01  5.8915457702333228e+01  5.6709939428042453e+01  5.6863724062285492e+01  4.1055521110809302e+01  4.4365456043658170e+01  4.0744909926166429e+01  4.5140767997321888e+01  3.7949460676228711e+01  3.4707988794118585e+01  3.7945409869887996e+01  3.6354238385182050e+01  3.6315449919343472e+01  3.5441953854031510e+01  3.7087450211079698e+01  6.5763515168209253e+01  6.4095453815024115e+01  6.7145295476171711e+01  6.6242738181829722e+01  7.0145547842760280e+01  4.8833676193799754e+01  4.9408145635549850e+01  7.0594543075209202e+01  6.3506873178827078e+01  6.0069945693920594e+01  5.9514035290631341e+01  6.2496588557668034e+01  6.9796322883046315e+01  6.7695335442244698e+01  6.3546428322097142e+01  6.3413805904336378e+01  5.7488882092291320e+01  5.2715858666005367e+01  3.9767150436215573e+01  3.8867257701000852e+01  3.7924323946167107e+01  5.9038126852728631e+01  6.1263858275904859e+01  7.7085453603680122e+01  7.8787640873007916e+01  7.2830982658866446e+01  7.6169538149614468e+01  7.3039263480100033e+01  7.3474951915169598e+01  6.8760663256613142e+01  6.7737183109284203e+01  5.6939992406069074e+01  3.8495554800084776e+01  5.8658505559727693e+01  5.8699111754951012e+01  3.5263442549830437e+01  3.6563951711842996e+01  3.5193562092094034e+01  4.2473745014578093e+01  4.4877288066110324e+01  5.4231867210306028e+01  5.0639305901513765e+01  5.1527627992027959e+01  5.0365581329273191e+01  5.9815439001436623e+01  6.0155504279256789e+01  6.0568436783872357e+01  6.0841710878235610e+01  6.5122308785842492e+01  6.4572109800127393e+01  5.4961016944055551e+01  5.0017216242075555e+01  4.9117699869291584e+01  5.0696749146354918e+01  4.8930314555867490e+01  4.5793128931180995e+01  4.6980877516610477e+01  5.5717832355821209e+01  5.2552621364274266e+01  7.6465610814640115e+01  5.4808145707836033e+01  5.1897003923709988e+01  6.3836516329297304e+01  6.7061705433837290e+01  6.8908205313183558e+01  6.7317432100964112e+01  3.7327616004188215e+01  3.4026882184866039e+01  3.6769659095247171e+01  6.0112353398185100e+01  3.6361680420717157e+01  6.0911692790206040e+01  4.1901557355124545e+01  3.8086544670947525e+01  6.1489516332031876e+01  4.9699748681506051e+01  6.8589303558420781e+01  3.7407099108640779e+01  3.7757137372421106e+01  3.7056966186626809e+01  3.7270921755730399e+01  3.6968965062073153e+01  6.2776962606097698e+01  4.4181882134379123e+01  4.6154638114953620e+01  4.5354235124849076e+01  7.6521336608022438e+01  5.9201574472833272e+01  5.4627617220980589e+01  5.4398974688389522e+01  5.4995681391238541e+01  3.4973846120749783e+01  7.0216628001993115e+01  7.0739331171283055e+01  3.7773813129963202e+01  3.7369636146543378e+01  4.8108560934740794e+01  4.8862167745673339e+01  4.3355203537021460e+01  5.7838193236323853e+01  6.1301037106325168e+01  6.2462581199825266e+01  6.0360193489647173e+01  6.2963045193499070e+01  4.0034460914447621e+01  3.8473914635322842e+01  3.8832898630491719e+01  3.8470562945808240e+01  7.0088320274212137e+01  3.8704708662880620e+01  4.0203382098698604e+01  4.0967093481321449e+01  5.2117355495093591e+01  5.2487422659744105e+01  5.2796065119102266e+01  5.1076723039267968e+01  4.0410086269391300e+01  3.8424777593346185e+01  3.9592842613233927e+01  5.0281552325187178e+01  7.4408201311453496e+01  7.5146096791838787e+01  7.5983751455662372e+01  6.2316104883838797e+01  6.7760446824084710e+01  5.3255984895140926e+01  5.0738833518459643e+01  4.9748544286535797e+01  5.1190100937214076e+01  6.6172050885245426e+01  6.2463658447772652e+01  6.3227825589296181e+01  3.6943163035080936e+01  3.6678160021843269e+01  3.6251302567577902e+01  5.3175887467565609e+01  5.5691631165102827e+01  5.5867318235350069e+01  5.2793067216070334e+01  6.7636251470173619e+01  3.6426021256297986e+01  3.6968128360232868e+01  3.6793662826719455e+01  6.0774994188206357e+01  6.0477858224857975e+01  6.0570583289514033e+01  4.3134874193536390e+01  4.4301737170799797e+01  4.4856381403565621e+01  3.7509478752662048e+01  3.5371254109152993e+01  3.5869932938295563e+01  6.1584982066945997e+01  6.2932237138287682e+01  6.2172672011651393e+01  6.1359485063202563e+01  6.1396984853991952e+01  6.1707193003308120e+01  6.1107850723610071e+01  4.5096045444644560e+01  3.5955533845206865e+01  4.9175658705811415e+01  6.9554498314336612e+01  5.2153195078133507e+01  5.1620293664982015e+01  3.7240757814805171e+01  3.8121525386217826e+01  3.8174375061369659e+01  3.9272367639163804e+01  3.8760525672335561e+01  3.7652723908989749e+01  5.2423649099623908e+01  5.1656421323762075e+01  5.1327291398771656e+01  6.2347155915598030e+01  6.3003399300881384e+01  3.8187256324793182e+01  3.8824071514491017e+01  4.2302035763572000e+01  4.2577043131976936e+01  4.7189924856822508e+01  4.0981827530972012e+01  4.1115064263212624e+01  4.0540394287762979e+01  4.8019179542703206e+01  7.6243953385944366e+01  5.3841403564571785e+01  5.5488082451405973e+01  5.3987969298777060e+01  6.8625492732926503e+01  6.9197598661582262e+01  6.8069467162769755e+01  5.1820075992791161e+01  5.3753632197129811e+01  5.2138177582511311e+01  4.5187125660627245e+01  5.7240161724383064e+01  5.5690828969227148e+01  3.8861698664500715e+01  3.7940671038616600e+01  6.6604475814178926e+01  6.6446559407513377e+01  6.7216927768639025e+01  3.8292817978202201e+01  3.6508067774894094e+01  </DataArray> 
</PointData> 
</Piece>
</UnstructuredGrid>
</VTKFile>