<?xml version="1.0"?>
<VTKFile type="UnstructuredGrid"  version="0.1"  >
<UnstructuredGrid>
<Piece  NumberOfPoints="784" NumberOfCells="1320">
<Points>
<DataArray  type="Float64"  NumberOfComponents="3"  format="ascii">266913.131276 586512.314988 0  266738.13716 587762.325998 0  266363.132677 589012.328643 0  266175.641078 590169.601714 0  265666.575631 591040.7699119999 0  264875.64001 591687.766419 0  264900.636161 591845.049083 0  266088.14152 592012.3229499999 0  265561.959259 592661.17101 0  264288.136855 593037.368683 0  263865.194033 593999.8486949999 0  263850.641856 593236.729596 0  263625.634872 592756.525286 0  262689.574249 593299.848918 0  262475.636737 594003.0907310001 0  261934.554452 594340.929792 0  261725.631329 594932.094409 0  261729.256443 595728.498809 0  262138.136044 595012.330523 0  262288.141035 596262.333669 0  261488.994028 597511.480605 0  261234.15567 598316.338928 0  260815.635063 599014.863821 0  261400.643658 599389.7367680001 0  261322.963374 600022.185065 0  261119.455248 600931.061306 0  261607.436504 601293.0629359999 0  260807.446929 602089.899812 0  260025.642878 602988.868697 0  259613.135827 603937.3854499999 0  259050.643123 604100.987861 0  258411.880065 603988.6335979999 0  257764.357469 604449.872569 0  257971.239668 605320.429125 0  258041.396867 605740.635381 0  257188.143339 606987.394312 0  256038.141198 608112.3554550001 0  254788.141633 609087.4026939999 0  253588.140656 609812.362881 0  252338.135706 609737.4048949999 0  251088.138116 609787.404055 0  249963.12851 610287.399466 0  248613.130524 610462.365857 0  247363.132198 610687.407659 0  246113.130532 610837.411551 0  245832.347438 610918.209918 0  245016.946433 610958.5639439999 0  244313.129646 610762.372259 0  244400.622144 611378.093316 0  243939.669208 612460.8930899999 0  242960.649733 611984.892792 0  242170.381438 611919.647351 0  241888.122919 611112.375656 0  241393.380757 610467.6456149999 0  240594.157528 611306.369822 0  240525.621947 610804.648112 0  240363.123632 610512.3745050001 0  239113.123247 610262.374278 0  239813.12126 609037.412459 0  240588.122952 607812.368199 0  241013.119545 606625.9534560001 0  241454.373249 605724.888025 0  242238.120107 604687.3993 0  243088.121248 603462.362766 0  242860.319451 603007.3932640001 0  241563.116617 603812.361344 0  241778.400913 604327.642217 0  242059.837234 604824.879102 0  241475.620201 604923.2402390001 0  241462.182234 605449.881372 0  240906.219606 605674.888222 0  240241.856192 606891.125066 0  239891.734044 607841.012479 0  239048.653431 608724.889805 0  238118.054545 608974.895967 0  238888.111029 607337.406468 0  239738.119992 606212.362729 0  240288.12044 605687.4075229999 0  240380.212307 604729.521696 0  239347.309632 604603.204501 0  238888.112036 604387.408787 0  237913.11173 604687.401386 0  236784.172023 604499.882783 0  236883.408793 603717.08334 0  236154.933927 603595.565605 0  235688.103943 602912.369264 0  235763.108033 601662.366516 0  236363.110805 600412.35884 0  236738.107995 599162.356577 0  236525.607944 598482.2412899999 0  236138.109208 599362.357613 0  235725.063048 600325.4466510001 0  235091.948926 601408.5220979999 0  235188.10921 600312.366344 0  234375.602405 600833.9674270001 0  234663.109308 599912.358011 0  234138.105122 600062.365644 0  233955.307245 599029.561063 0  233338.103791 598387.401556 0  233988.09795 597862.356384 0  235138.101489 596637.3947750001 0  235563.1039 595387.392428 0  236513.103639 594212.356312 0  237163.10684 592987.3929869999 0  238313.103031 591862.3515540001 0  239513.107028 590812.3512640001 0  240638.102135 589787.387271 0  241463.109549 588587.378486 0  242294.489816 587443.735215 0  242913.101099 586512.341804 0  243544.066915 585474.859604 0  243040.448415 585184.975583 0  242438.10214 585337.38015 0  241313.102353 586562.339499 0  240538.107104 587787.382449 0  240114.641085 588588.939407 0  239388.100256 589437.382238 0  238188.104456 590512.346358 0  236938.100507 591362.349798 0  235813.10453 592537.396388 0  234864.502938 593178.7753880001 0  234463.097651 592862.357267 0  235113.0965 591662.3545979999 0  235713.101522 590412.346099 0  235777.688431 589976.7582779999 0  234943.583145 590706.265132 0  234462.482256 591490.2841159999 0  233801.497784 592112.940187 0  233388.099101 591787.394208 0  234013.093099 590437.393065 0  234776.217248 587148.7548100001 0  235163.093726 586562.3486189999 0  235313.098918 585483.229012 0  235250.59732 584662.298153 0  235588.093896 583337.379493 0  236329.432041 582199.858992 0  237188.096234 581462.3349939999 0  237463.088521 580212.335511 0  238350.592558 579057.652616 0  238591.415797 578574.847681 0  238313.094106 577612.328905 0  239229.696732 577695.769664 0  240195.161018 577513.008613 0  240614.996733 577149.8518770001 0  240663.091715 577412.332622 0  240288.092486 578662.334085 0  239942.357258 579508.095811 0  240438.100019 580212.3334220001 0  241338.095553 580387.375355 0  241238.099828 579137.369157 0  241788.097003 577887.370889 0  241983.554649 577241.9220939999 0  242054.178239 576927.8105029999 0  242588.100699 575737.366175 0  243149.324833 574898.583978 0  243695.278626 573919.517981 0  244268.494418 573724.8454239999 0  244995.134063 573930.2767810001 0  245417.314363 573391.601898 0  243450.599125 571859.479773 0  245776.797908 572599.8353060001 0  246779.639852 572973.285167 0  248034.741935 573186.082054 0  249413.10651 573162.3205520001 0  250496.922226 573271.1521899999 0  251613.105126 573237.3551319999 0  252421.824577 572846.032906 0  253256.245022 572580.4733130001 0  253739.471933 571960.9547369999 0  254174.511864 572149.8346569999 0  254484.944333 571684.194807 0  254384.108649 570891.346712 0  254344.002752 570218.26407 0  255025.609604 570829.0294979999 0  255715.005913 570489.264586 0  256218.846343 570774.828355 0  256834.349083 570508.5908 0  257390.092515 570014.308325 0  257624.431042 568493.478911 0  259355.811717 569380.021819 0  260033.372814 569617.066669 0  262679.741751 570320.699974 0  263289.115756 569524.817815 0  263463.114338 570512.301061 0  264638.198419 570687.3443539999 0  265058.220065 571334.378467 0  265447.561421 572077.90485 0  265488.125257 573137.3446020001 0  265131.937715 573963.293593 0  265432.389648 575093.068786 0  265638.122314 576338.029955 0  265750.630817 577371.8281319999 0  265738.570663 578561.9098850001 0  265875.630866 579139.630549 0  266213.129247 579862.311842 0  266563.130472 581112.314509 0  266238.135356 582362.310259 0  265938.12863 583612.320897 0  265738.131342 584762.3210189999 0  266875.638633 585365.358768 0  264018.7239399826 593650.4646671159 0  262236.3944351029 595831.1252656333 0  241846.246678 605206.1436625 0  240200.622106 608424.8903290001 0  240943.4862974102 610939.7757535663 0  236550.6094 599787.3577085 0  238528.1212051503 608102.9081793013 0  244413.4891967989 572609.5960859474 0  236382.0474488751 598808.3067022427 0  235369.601910944 600933.5380148316 0  235413.099011 591037.3503485 0  235446.2251831186 590266.6553871984 0  240475.5921005 578037.3333535 0  240413.173949154 577324.4280286073 0  240574.037899 606283.0066440001 0  263857.9179445 593618.2891454998 0  264153.4303974913 593343.916675058 0  242042.1833925 604946.7714812499 0  241650.3099635 605465.51584375 0  244613.6985165 572229.6575395 0  236631.8579695 598822.2989335 0  235140.029068 600860.444221 0  241767.7287175 604874.0596705 0  242140.15174975 604817.0853906251 0  234781.8558075 600573.1668855001 0  242091.167571125 604881.9284359375 0  234519.3558565 600373.162719 0  254604.8337712102 583989.0014118921 0  250699.5846056537 594617.3297041012 0  250540.4796469513 602258.2940568649 0  248483.7490186612 580334.7345534252 0  258549.2190328319 577893.951823392 0  257067.0067473103 590016.5327808241 0  243285.0921999099 596333.923437875 0  248333.1386145258 589098.0389905117 0  256142.8445072741 595883.3911551933 0  260245.1368072523 583315.2785712298 0  253472.3380211276 578932.2908163272 0  246432.3347504817 599884.5019511909 0  261555.9240922556 588041.186709004 0  247293.1100123104 605823.8307887657 0  246458.2798550911 593168.8646574575 0  252840.0183145193 588226.5564648228 0  249828.2874404451 584740.7888937403 0  255409.5660975206 600458.8956828594 0  260819.9733392385 574219.403683011 0  252584.2262054711 605722.6603825617 0  254049.8830611471 592547.4852571967 0  250015.4356193061 598425.2225922942 0  245872.072249477 577604.9761853142 0  262002.1583249522 579753.4663046852 0  257732.6630933878 586227.970805314 0  250242.5556457866 577017.3316409125 0  244921.6453001869 581816.6358421432 0  256520.3890639471 580904.824006648 0  240779.0970645865 599524.6679555867 0  257100.1829219198 574459.5922545703 0  239912.2630002034 595231.1172704464 0  244703.0875078634 590068.6945953515 0  242549.5490268674 592874.3693043783 0  251586.0465921376 581796.2215047925 0  246643.189997516 596527.447801719 0  251049.7658069622 591057.6752245198 0  253014.5731561695 596998.6601086652 0  238680.2197353724 584542.2309791476 0  259715.365803504 591937.1938619445 0  254097.157218761 575731.4494927844 0  246806.6408589328 586139.0877599345 0  246136.1179750556 602959.471719323 0  253520.7033332401 602835.180253843 0  244125.4295793909 607538.9817227355 0  252546.8895354472 599881.3279113505 0  258289.0983523553 600397.640191779 0  247518.7952199645 583037.3718217331 0  263140.3959879661 582529.2228421422 0  262894.8586894067 585442.3590432997 0  256968.6320599076 593040.7691844478 0  243573.0187527719 600218.2795730785 0  258888.5766127351 595139.7745218446 0  262588.7569809347 576734.8569237856 0  259318.4257992262 580601.2540325444 0  249963.3812725965 607065.7205847671 0  257494.5307999607 583482.5893534871 0  258906.4757205145 572278.8089438241 0  237751.446593475 587300.5805003279 0  255142.4708720699 604956.7580261135 0  258485.4978753244 597756.9250383095 0  255516.7820591553 587791.39641967 0  239758.4692108706 601926.8203218657 0  255873.0092222999 577739.5085867504
[...]
<PointData  Scalars="f_32-1"> 
<DataArray  type="Float64"  Name="f_32-1"  format="ascii">4.2058986462427328e+01  4.3320714629248911e+01  4.5320196538023744e+01  4.7041592636158001e+01  4.8369300727029717e+01  5.0440706096223693e+01  5.1065319593603739e+01  5.1515828560042316e+01  5.1529762243691067e+01  5.2050211022548744e+01  5.2341785110389758e+01  5.2255157517952433e+01  5.2626954842815131e+01  5.5356616275476966e+01  5.6810436126142932e+01  5.8134841625759556e+01  5.9684084431537912e+01  6.1133269994058310e+01  6.1112743630170165e+01  6.1508055799295072e+01  6.3629191791344653e+01  6.5361397121822591e+01  6.7294666432929901e+01  6.8319148600313596e+01  6.8840805307726910e+01  7.0075271540409034e+01  7.0436128482007433e+01  7.1103496241887171e+01  7.2369951561971575e+01  7.3155065014403718e+01  7.3355535641300008e+01  7.3861074280011181e+01  7.5092809384329556e+01  7.6068046493506927e+01  7.6248123893225952e+01  7.7161202660018347e+01  7.8390899162415593e+01  7.9667706653706759e+01  8.0579188665210566e+01  8.1386078886818481e+01  8.2589528054564340e+01  8.3717545733734568e+01  8.4742868751325901e+01  8.5650287432498217e+01  8.6463886662256826e+01  8.6636090718732518e+01  8.7076766945506350e+01  8.7634111290260321e+01  8.8060621426749563e+01  8.8253618356341889e+01  8.8291507611472085e+01  8.8328554946773650e+01  8.8318076799593655e+01  8.8400969388308383e+01  8.8591461750251796e+01  8.8577036424077292e+01  8.8579868382618770e+01  8.8656441597919368e+01  8.8450838790122319e+01  8.7767511274775458e+01  8.6961938046693376e+01  8.6286625446307653e+01  8.5190532495801506e+01  8.3422419889853970e+01  8.3256551806124776e+01  8.5499268731256421e+01  8.6095529216961836e+01  8.6235711203191386e+01  8.6386914556802381e+01  8.6604824058697048e+01  8.6888275988404374e+01  8.7917968501588362e+01  8.8287441047423684e+01  8.8483574655083856e+01  8.8525830686381724e+01  8.8311382213927345e+01  8.7757348562110920e+01  8.7169922680156986e+01  8.6513813592035717e+01  8.6800576117078435e+01  8.7076650054466782e+01  8.7494630290953978e+01  8.7630183235506308e+01  8.7615140328302274e+01  8.7653587292149865e+01  8.7616938526754765e+01  8.7314865908406261e+01  8.6391255630260829e+01  8.4927984824907966e+01  8.4729625216506761e+01  8.6163848898346288e+01  8.6795944717403216e+01  8.6994390521415809e+01  8.6837366115246624e+01  8.6916646757969133e+01  8.6754036234400374e+01  8.6730265962019459e+01  8.6511346013509737e+01  8.6409593981178432e+01  8.6129096715171428e+01  8.3906194738208313e+01  8.1571787903340564e+01  7.8634994873827395e+01  7.5859670313805594e+01  7.3190784745551497e+01  7.0818891563614940e+01  6.8823822335643371e+01  6.6993653680418575e+01  6.5110762671736680e+01  6.3507299264121144e+01  6.1554984082784479e+01  6.0575551411586297e+01  6.0815397697341176e+01  6.4105714346312510e+01  6.6761840188875752e+01  6.7828482456229594e+01  6.8889139544030996e+01  7.0642369664487987e+01  7.2800483058852279e+01  7.5039198022428593e+01  7.5634261337890052e+01  7.5640381591413671e+01  7.4738058498504273e+01  7.2836599380084380e+01  7.2437883081229714e+01  7.4177325676493950e+01  7.5334023694587586e+01  7.5722462480981889e+01  7.5725084108395777e+01  7.4499091365261691e+01  7.0190616079521675e+01  6.9452502423615996e+01  6.8329265200734284e+01  6.7709326164186464e+01  6.6788021261103808e+01  6.5695252139392281e+01  6.4354770753604186e+01  6.3054318370057338e+01  6.1950857293894380e+01  6.1502284756324656e+01  6.1227398024788222e+01  6.1168469605514602e+01  6.0958482706464366e+01  6.0893251051614335e+01  6.0901045021784270e+01  6.1232005499856726e+01  6.1784668619457179e+01  6.1847768793835364e+01  6.0595014309889827e+01  5.9118186965926114e+01  5.7820999940423462e+01  5.7057752349563003e+01  5.6730237852374778e+01  5.5240647138565791e+01  5.3973464558276220e+01  5.2841091360427704e+01  5.2485063344811969e+01  5.1358664167461754e+01  4.9875752417199749e+01  4.9707697679526134e+01  4.9422799104668407e+01  4.8658277230617628e+01  4.6621097755656152e+01  4.4152946252840110e+01  4.2749392225484598e+01  4.1193379423430898e+01  3.9827544927722663e+01  3.8626638320609629e+01  3.7807207133750161e+01  3.7517903605820209e+01  3.6532610913292189e+01  3.5887481096859602e+01  3.5837510620333646e+01  3.5733507820124601e+01  3.5284751684048295e+01  3.4830465862188262e+01  3.3838378547699662e+01  3.2828235020652237e+01  3.2584954090940478e+01  3.1842326858350855e+01  3.1774610409307385e+01  3.3374334206503349e+01  3.3616440563102692e+01  3.3498479669648503e+01  3.3312757639713752e+01  3.3080393376152244e+01  3.2812066780638091e+01  3.2831715988367527e+01  3.3277262180472533e+01  3.4022857674289746e+01  3.4830208248776245e+01  3.5586314864316662e+01  3.6639894082279717e+01  3.7200451662533091e+01  3.7803170507973242e+01  3.9007563447145458e+01  4.0520480341539589e+01  4.1773086380203438e+01  4.1832290846340392e+01  4.1563175496545142e+01  5.2316716901029267e+01  6.1291534193126878e+01  8.5795001012195300e+01  8.8175594631818754e+01  8.8567783309039271e+01  8.5687732282265401e+01  8.8466379537588409e+01  4.9622223676738109e+01  8.5448203435778339e+01  8.6955452246276593e+01  7.3832746173160245e+01  7.3094755395517538e+01  6.1007719003158158e+01  6.0906669699462142e+01  8.7480347682226309e+01  5.2316539452047628e+01  5.2252952645710465e+01  8.5506694350463022e+01  8.6058977847982234e+01  4.9622149988641880e+01  8.4613941340944478e+01  8.6955530995491060e+01  8.6260994034632787e+01  8.5352990027897832e+01  8.6886205401162130e+01  8.5430786848694382e+01  8.6885390821474203e+01  4.8285895222841134e+01  6.6732509141677966e+01  7.6154908729368785e+01  5.0398293696690835e+01  3.1001064960595425e+01  5.0686179840217719e+01  7.5729151203860368e+01  6.0721922487775998e+01  6.4722049592137694e+01  4.2396925641143682e+01  4.0103840283947655e+01  7.5651688946341892e+01  4.7285821782643794e+01  8.2731150584446183e+01  6.7835796543886715e+01  5.2310100464316449e+01  5.7030685141522447e+01  6.8578729409506110e+01  3.3936751107090600e+01  7.8775884515647178e+01  6.1749103560637302e+01  7.0491410376901996e+01  5.2028956868252600e+01  3.4569755754352521e+01  4.4135135220026520e+01  4.4143656709592115e+01  5.7432015886424097e+01  4.3118440601317829e+01  8.1967746593900813e+01  3.6741227649426399e+01  7.6617204601286133e+01  6.4071797109069962e+01  7.0750263099415406e+01  5.1269178427668969e+01  7.2879134657673617e+01  6.0447869097628626e+01  6.7402904804860668e+01  6.5277048253467697e+01  5.6142092249549329e+01  3.6611451889793379e+01  5.9781911402367562e+01  8.0227352714680677e+01  7.5005171431647014e+01  8.6201928362740020e+01  7.0859793665623528e+01  6.9827564131038713e+01  5.6551467515543557e+01  3.9381088395496292e+01  4.2606349895925760e+01  5.9396079061628441e+01  7.9832935709918118e+01  6.1777248250656442e+01  3.5066069511511259e+01  3.8727774916151482e+01  8.1877445898886705e+01  4.4674304273674835e+01  3.3049938218773299e+01  6.8483733095476538e+01  7.6582827854475966e+01  6.5825329551836148e+01  4.4481820735670318e+01  8.5594524402080808e+01  3.5011624097114854e+01  5.1545625819237543e+01  6.0040228121337094e+01  6.5466643177590655e+01  5.6645610732949649e+01  4.7413160968998461e+01  4.4448185425270623e+01  5.4687840517537161e+01  4.7537429593076176e+01  4.7833587507904014e+01  4.5229239459107710e+01  4.8574746576122834e+01  8.5219719348308132e+01  7.9238769032066685e+01  5.3251689311602199e+01  8.3815750655129122e+01  7.6389634372372200e+01  7.3824016274921235e+01  8.1299407386944111e+01  6.3090204550199815e+01  5.9528723135601794e+01  6.5610623351188678e+01  7.2697901130304771e+01  5.7881687404984874e+01  7.8727002825397634e+01  4.7602075140695739e+01  6.5825286756144820e+01  3.3128619749505404e+01  4.8122458781199711e+01  6.9183477499635075e+01  7.8329244536309147e+01  6.3004002797295485e+01  7.1541506621375603e+01  6.1918487330335267e+01  7.2634530771086062e+01  3.2740790065095965e+01  5.1783896903150534e+01  5.3886941371627174e+01  8.0453963273862442e+01  6.7581507238347299e+01  3.7393403380015144e+01  8.0015621270904077e+01  6.3850019707900003e+01  8.4767084566380987e+01  3.3919513143977575e+01  8.5484674447556642e+01  8.5404061574646818e+01  5.5626971698056643e+01  5.1433606689271400e+01  8.5473075278070638e+01  8.6429248511700237e+01  8.3571797273145833e+01  8.5559291438573169e+01  7.2078315771582680e+01  3.6552940583983272e+01  8.1383337108940466e+01  7.6580442694676734e+01  5.6529306797153644e+01  5.1008315639985248e+01  4.8036152979402182e+01  8.6212813883980161e+01  8.5393809003125995e+01  5.9215725114882758e+01  8.6415018237054042e+01  8.4383428961990120e+01  8.4894345389158630e+01  8.6554299778239027e+01  5.9945028329405240e+01  4.9546821052134796e+01  7.1952704867142657e+01  3.4711599537984029e+01  4.9714988938540174e+01  3.6965102778383979e+01  6.9922578517919248e+01  8.7968747597417988e+01  6.7270865136455811e+01  7.3234365535467319e+01  8.4008974786870994e+01  6.0014624796622122e+01  3.1824326656886036e+01  7.2600641542367072e+01  3.9049085290075041e+01  5.2915543660476210e+01  8.5356746598053874e+01  8.3422460976284611e+01  6.2705327592184773e+01  8.7968174768473915e+01  4.3581045809121306e+01  8.5899142823127946e+01  6.4661268433601151e+01  3.3064814068248005e+01  3.6700102288936542e+01  3.7439693547658003e+01  7.2956939361582172e+01  8.2487718439290191e+01  8.1861887563207702e+01  6.9279074136106360e+01  8.5937722768285937e+01  6.0875351990286148e+01  4.9571186419912429e+01  4.9558794154635954e+01  3.3107828377133622e+01  8.5469445853299092e+01  8.5653737999779537e+01  8.5727069042232287e+01  7.6309850784494941e+01  8.2229263655681152e+01  8.5722257619457963e+01  8.4161538208346755e+01  6.7596897378371509e+01  8.8524044643492743e+01  8.8477796560174852e+01  6.1647056997726935e+01  3.5501881169153670e+01  6.1727553720499337e+01  8.2695922088783973e+01  5.6710818049291674e+01  6.5190540011604924e+01  8.8134590100689124e+01  6.1960151542658259e+01  7.3953147366037797e+01  4.1627486962895190e+01  5.6790293291205771e+01  5.6003487456365050e+01  5.7422713885609419e+01  8.6327088821420546e+01  5.0852709825617382e+01  5.1639484756121028e+01  4.9972379023676858e+01  5.1522150251937447e+01  4.7990765649886093e+01  3.3214986062761554e+01  3.2082425158893862e+01  5.2903996711541012e+01  5.5389426806245055e+01  7.5448828022555148e+01  7.5388950041997575e+01  8.8350918063218472e+01  6.7493563209661346e+01  6.5002477383047690e+01  6.0909582005349883e+01  6.0533178526614243e+01  6.0562410515885148e+01  6.0531119489672108e+01  6.0389688617546810e+01  6.0248667745146037e+01  6.2268362606966221e+01  6.0371938529833272e+01  6.1091635592296718e+01  6.4369494540075124e+01  6.2550333276909129e+01  5.8988890661624090e+01  6.0543700003139826e+01  4.5243670079495054e+01  4.6906717930257649e+01  4.4910093857582297e+01  4.3430699371189640e+01  4.3780862640637139e+01  4.1996247793815677e+01  4.3005869057876126e+01  4.2308188238844103e+01  3.9157454905255449e+01  3.7989477873823418e+01  3.4663490825441478e+01  3.5202402417236335e+01  3.5098849472674033e+01  3.6041917268109380e+01  3.5478577392625127e+01  3.6940169495705582e+01  3.6836565583904132e+01  3.5968000761702925e+01  3.7544738439411951e+01  3.7074865008719726e+01  3.7858481352108427e+01  3.7388505461855360e+01  3.8452262588207184e+01  4.0463828400084097e+01  3.9120647561915959e+01  4.3272183877082973e+01  4.6599691422136814e+01  4.5479203467472146e+01  4.8100726472862846e+01  6.7934754191980431e+01  6.7065728464923083e+01  6.6346693437264420e+01  6.7739657908784608e+01  7.3968111562340980e+01  7.7788670295888110e+01  7.5028034193981085e+01  7.7301194032533957e+01  5.3465368867824075e+01  4.9500275799220105e+01  4.8809079323747540e+01  5.0186660335679143e+01  3.3216774929549565e+01  3.6093175251014735e+01  3.4184599334738508e+01  3.4528857681092397e+01  3.2044162422200223e+01  3.1501179713785728e+01  5.4176157136710387e+01  5.5262311555365187e+01  4.7333926319680621e+01  5.1808412046463424e+01  4.9278606646331951e+01  7.6191076276290090e+01  7.3287595658538066e+01  6.0220716635891094e+01  6.0010959838909464e+01  6.2428874396772642e+01  5.9586968260794116e+01  6.1690540573213013e+01  6.0532293704554952e+01  6.3613076165664069e+01  6.6093715502431877e+01  6.5389678229833294e+01  3.7098241515149631e+01  4.0057650493910586e+01  4.2588014196450914e+01  4.0673617072082315e+01  4.0947933261717964e+01  4.2453377986458570e+01  4.6881921168464999e+01  3.5514882914419445e+01  3.7556983490749744e+01  4.4535424249891953e+01  4.3934235001213096e+01  7.2706291802782673e+01  7.7728409554993377e+01  7.4321485879019349e+01  7.8592925153206465e+01  8.1611163651445722e+01  7.0828015119332349e+01  6.5356959883748502e+01  6.9675339019026055e+01  6.7494165957881748e+01  4.7939254208328855e+01  5.3189883295608880e+01  5.5274382605395495e+01  4.8939751703534199e+01  7.1989746361398545e+01  6.8883792911438888e+01  6.9289169336496244e+01  6.6311448732273618e+01  3.5071108822357338e+01  3.4120330457432203e+01  6.1563806372199991e+01  6.0172852730213798e+01  5.8657567602499618e+01  7.1284693447459276e+01  6.8805824140506061e+01  7.2289792831505650e+01  6.9295242611904641e+01  5.4166111913399185e+01  5.0202402209192520e+01  4.9903232274266706e+01  5.1646692362803336e+01  5.1122320701714933e+01  5.2932175818421449e+01  3.5922613108121638e+01  3.5408698431895601e+01  3.5399361963129500e+01  3.3461064598430177e+01  3.5756005291431769e+01  3.6116113832140258e+01  4.4120326707497995e+01  4.2638472901648228e+01  4.5956761244242138e+01  4.2560310074673652e+01  3.8182859116086902e+01  4.5384961608302810e+01  4.5888140484518168e+01  4.6573908336885893e+01  4.0282718403803152e+01  4.3716675871184556e+01  5.6880157193843452e+01  5.9150969871134649e+01  5.6727218826551415e+01  5.4962249584520080e+01  4.0924773278916838e+01  4.4586469255007913e+01  3.8244297233624891e+01  4.5337379376992622e+01  3.7044520909910787e+01  3.5352231998073044e+01  3.5641532031586976e+01  3.4468920710522795e+01  3.6735897815841298e+01  3.5992194920248508e+01  3.7160558373626451e+01  6.2997888100721035e+01  6.2824639653438304e+01  6.5665832987572045e+01  6.6007604645307211e+01  7.1100394975712163e+01  4.9374340399128286e+01  4.9590656024659374e+01  7.1008802715075234e+01  6.2935965332465287e+01  5.8911741972807391e+01  5.8223571541698469e+01  6.2218950739796796e+01  6.8558169842277778e+01  6.6526866790721215e+01  6.4039169485869678e+01  6.3666970642194386e+01  5.7590780184022499e+01  5.2654849650501980e+01  3.6045152497918437e+01  3.7483431973810269e+01  3.7338190540289318e+01  5.9398581071297151e+01  6.0614807413615722e+01  7.6714378118814025e+01  7.9325454021199747e+01  7.2895741071010718e+01  7.7262690814524262e+01  7.3519078329616946e+01  7.3125427354375233e+01  6.7253979766457050e+01  6.7138926521821062e+01  5.3925705178035798e+01  3.7913028306502298e+01  5.6553549726432657e+01  5.9502953305302697e+01  3.3764311497160357e+01  3.6114873383438159e+01  3.5439916431073016e+01  4.2841557955238954e+01  4.4885822956091594e+01  4.9318426608355658e+01  4.5242974265947147e+01  4.4766196762732285e+01  5.0957204896079602e+01  5.9693935874498855e+01  5.9930231459785901e+01  6.0808608088198937e+01  6.0722249544927571e+01  6.4431158282335147e+01  6.4454985574181521e+01  5.4402992099325935e+01  5.0723786350249604e+01  4.7617773171809844e+01  5.1018148142344721e+01  4.8078252144852200e+01  4.5572794884038871e+01  4.6986998230917678e+01  5.5425610047328817e+01  5.1291532403254202e+01  7.6193281500437990e+01  5.3021981567522680e+01  4.9641913636002222e+01  6.1526276466160965e+01  6.4956438010409570e+01  6.9566425840991826e+01  6.7366078863477981e+01  3.7219516102641919e+01  3.4665015565957702e+01  3.7089606401121770e+01  5.9928478911810579e+01  3.6200678727505547e+01  6.0671032415399026e+01  4.1224682033300944e+01  3.7999411029568499e+01  6.1678200373595281e+01  4.5216640948006855e+01  6.7794808503021827e+01  3.1826312346243114e+01  3.2360659550656166e+01  3.2015025170140106e+01  3.1222809802337583e+01  3.2456730451879302e+01  6.0981232016783792e+01  3.9864714546401295e+01  4.3721207363380351e+01  4.1848101552378715e+01  7.5915333662730760e+01  5.7389584040823991e+01  5.0131721938791003e+01  5.0451279547844088e+01  5.2220202573021446e+01  3.4280631780189104e+01  6.9062683135565095e+01  6.9652881625004042e+01  3.4837408641543618e+01  3.4822154867922244e+01  4.2895390264359854e+01  4.2540488418065095e+01  4.1165365338141896e+01  5.5909435317039708e+01  6.0085614730089418e+01  6.1642996938778168e+01  5.8989459060530322e+01  6.2459035908380685e+01  3.6534362898938035e+01  3.6973173272992085e+01  3.6948928819064200e+01  3.7041180573653953e+01  6.8962771157869582e+01  3.7040943147530825e+01  3.9922811831284257e+01  4.1028762568346281e+01  4.5729145800487927e+01  4.6002924704347329e+01  4.6674119537173340e+01  4.4281500178547191e+01  3.6304236246958631e+01  3.5010800870478853e+01  3.5698786318672845e+01  4.7027088573924445e+01  7.3113877313548670e+01  7.3936733698568261e+01  7.5102845709027477e+01  6.2593019445890754e+01  6.6129819710585409e+01  5.0236224120484522e+01  4.8347508340763198e+01  4.7710878788110570e+01  4.8914720965006502e+01  6.3817650158954393e+01  6.0989803118492084e+01  6.1639739265825121e+01  3.1902135563323522e+01  3.2106817660023886e+01  3.3291014492494867e+01  5.1587162157551973e+01  5.3305328650200657e+01  5.2477282949810025e+01  5.0428111260397621e+01  6.6261773604253619e+01  3.6512321360789734e+01  3.6470163088596166e+01  3.6612346987193561e+01  6.0416618841884947e+01  6.0215818471392552e+01  6.0252549951058185e+01  4.2162760312842437e+01  4.3606487558661833e+01  4.4519694212677450e+01  3.7277676249156535e+01  3.5730340282781867e+01  3.5878920886359950e+01  6.1430932913760678e+01  6.2997541720774294e+01  6.2096510123099947e+01  6.1269742091955798e+01  6.1258076584985886e+01  6.1756385662384005e+01  6.0841182286993813e+01  4.5149229385323416e+01  3.6109952628672517e+01  4.2796164986543801e+01  6.8523849973807842e+01  4.9478859643261885e+01  4.9089980202451834e+01  3.1620637781320283e+01  3.2838651839967028e+01  3.5705621405009019e+01  3.7959303673345282e+01  3.4022892734747472e+01  3.3881379195676843e+01  4.7924556291637877e+01  4.5963327925412706e+01  4.7247796676235680e+01  6.1335114758849286e+01  6.0988391178367117e+01  3.5936720771378191e+01  3.7671467191221723e+01  3.7080348829925690e+01  3.8892204259985540e+01  4.5474730027486004e+01  3.5916633024278319e+01  3.7995278608764842e+01  3.6141795256444183e+01  4.7166604180090374e+01  7.5393410623575377e+01  4.8444245319637901e+01  5.1254222505738674e+01  5.1001128618624890e+01  6.7217994331669900e+01  6.7878518941700776e+01  6.6449789966105968e+01  5.0688553783251550e+01  5.2901580233572211e+01  5.0485488419099681e+01  4.4624285439004950e+01  5.4302834513492911e+01  5.4486548018049142e+01  3.6486258439706511e+01  3.7231406555386606e+01  6.4245064499674427e+01  6.3883661858799805e+01  6.5218716229022164e+01  3.7343624392838159e+01  3.6146307927209378e+01  </DataArray> 
</PointData> 
</Piece>
</UnstructuredGrid>
</VTKFile>