<?xml version="1.0"?>
<VTKFile type="UnstructuredGrid"  version="0.1"  >
<UnstructuredGrid>
<Piece  NumberOfPoints="784" NumberOfCells="1320">
<Points>
<DataArray  type="Float64"  NumberOfComponents="3"  format="ascii">266913.131276 586512.314988 0  266738.13716 587762.325998 0  266363.132677 589012.328643 0  266175.641078 590169.601714 0  265666.575631 591040.7699119999 0  264875.64001 591687.766419 0  264900.636161 591845.049083 0  266088.14152 592012.3229499999 0  265561.959259 592661.17101 0  264288.136855 593037.368683 0  263865.194033 593999.8486949999 0  263850.641856 593236.729596 0  263625.634872 592756.525286 0  262689.574249 593299.848918 0  262475.636737 594003.0907310001 0  261934.554452 594340.929792 0  261725.631329 594932.094409 0  261729.256443 595728.498809 0  262138.136044 595012.330523 0  262288.141035 596262.333669 0  261488.994028 597511.480605 0  261234.15567 598316.338928 0  260815.635063 599014.863821 0  261400.643658 599389.7367680001 0  261322.963374 600022.185065 0  261119.455248 600931.061306 0  261607.436504 601293.0629359999 0  260807.446929 602089.899812 0  260025.642878 602988.868697 0  259613.135827 603937.3854499999 0  259050.643123 604100.987861 0  258411.880065 603988.6335979999 0  257764.357469 604449.872569 0  257971.239668 605320.429125 0  258041.396867 605740.635381 0  257188.143339 606987.394312 0  256038.141198 608112.3554550001 0  254788.141633 609087.4026939999 0  253588.140656 609812.362881 0  252338.135706 609737.4048949999 0  251088.138116 609787.404055 0  249963.12851 610287.399466 0  248613.130524 610462.365857 0  247363.132198 610687.407659 0  246113.130532 610837.411551 0  245832.347438 610918.209918 0  245016.946433 610958.5639439999 0  244313.129646 610762.372259 0  244400.622144 611378.093316 0  243939.669208 612460.8930899999 0  242960.649733 611984.892792 0  242170.381438 611919.647351 0  241888.122919 611112.375656 0  241393.380757 610467.6456149999 0  240594.157528 611306.369822 0  240525.621947 610804.648112 0  240363.123632 610512.3745050001 0  239113.123247 610262.374278 0  239813.12126 609037.412459 0  240588.122952 607812.368199 0  241013.119545 606625.9534560001 0  241454.373249 605724.888025 0  242238.120107 604687.3993 0  243088.121248 603462.362766 0  242860.319451 603007.3932640001 0  241563.116617 603812.361344 0  241778.400913 604327.642217 0  242059.837234 604824.879102 0  241475.620201 604923.2402390001 0  241462.182234 605449.881372 0  240906.219606 605674.888222 0  240241.856192 606891.125066 0  239891.734044 607841.012479 0  239048.653431 608724.889805 0  238118.054545 608974.895967 0  238888.111029 607337.406468 0  239738.119992 606212.362729 0  240288.12044 605687.4075229999 0  240380.212307 604729.521696 0  239347.309632 604603.204501 0  238888.112036 604387.408787 0  237913.11173 604687.401386 0  236784.172023 604499.882783 0  236883.408793 603717.08334 0  236154.933927 603595.565605 0  235688.103943 602912.369264 0  235763.108033 601662.366516 0  236363.110805 600412.35884 0  236738.107995 599162.356577 0  236525.607944 598482.2412899999 0  236138.109208 599362.357613 0  235725.063048 600325.4466510001 0  235091.948926 601408.5220979999 0  235188.10921 600312.366344 0  234375.602405 600833.9674270001 0  234663.109308 599912.358011 0  234138.105122 600062.365644 0  233955.307245 599029.561063 0  233338.103791 598387.401556 0  233988.09795 597862.356384 0  235138.101489 596637.3947750001 0  235563.1039 595387.392428 0  236513.103639 594212.356312 0  237163.10684 592987.3929869999 0  238313.103031 591862.3515540001 0  239513.107028 590812.3512640001 0  240638.102135 589787.387271 0  241463.109549 588587.378486 0  242294.489816 587443.735215 0  242913.101099 586512.341804 0  243544.066915 585474.859604 0  243040.448415 585184.975583 0  242438.10214 585337.38015 0  241313.102353 586562.339499 0  240538.107104 587787.382449 0  240114.641085 588588.939407 0  239388.100256 589437.382238 0  238188.104456 590512.346358 0  236938.100507 591362.349798 0  235813.10453 592537.396388 0  234864.502938 593178.7753880001 0  234463.097651 592862.357267 0  235113.0965 591662.3545979999 0  235713.101522 590412.346099 0  235777.688431 589976.7582779999 0  234943.583145 590706.265132 0  234462.482256 591490.2841159999 0  233801.497784 592112.940187 0  233388.099101 591787.394208 0  234013.093099 590437.393065 0  234776.217248 587148.7548100001 0  235163.093726 586562.3486189999 0  235313.098918 585483.229012 0  235250.59732 584662.298153 0  235588.093896 583337.379493 0  236329.432041 582199.858992 0  237188.096234 581462.3349939999 0  237463.088521 580212.335511 0  238350.592558 579057.652616 0  238591.415797 578574.847681 0  238313.094106 577612.328905 0  239229.696732 577695.769664 0  240195.161018 577513.008613 0  240614.996733 577149.8518770001 0  240663.091715 577412.332622 0  240288.092486 578662.334085 0  239942.357258 579508.095811 0  240438.100019 580212.3334220001 0  241338.095553 580387.375355 0  241238.099828 579137.369157 0  241788.097003 577887.370889 0  241983.554649 577241.9220939999 0  242054.178239 576927.8105029999 0  242588.100699 575737.366175 0  243149.324833 574898.583978 0  243695.278626 573919.517981 0  244268.494418 573724.8454239999 0  244995.134063 573930.2767810001 0  245417.314363 573391.601898 0  243450.599125 571859.479773 0  245776.797908 572599.8353060001 0  246779.639852 572973.285167 0  248034.741935 573186.082054 0  249413.10651 573162.3205520001 0  250496.922226 573271.1521899999 0  251613.105126 573237.3551319999 0  252421.824577 572846.032906 0  253256.245022 572580.4733130001 0  253739.471933 571960.9547369999 0  254174.511864 572149.8346569999 0  254484.944333 571684.194807 0  254384.108649 570891.346712 0  254344.002752 570218.26407 0  255025.609604 570829.0294979999 0  255715.005913 570489.264586 0  256218.846343 570774.828355 0  256834.349083 570508.5908 0  257390.092515 570014.308325 0  257624.431042 568493.478911 0  259355.811717 569380.021819 0  260033.372814 569617.066669 0  262679.741751 570320.699974 0  263289.115756 569524.817815 0  263463.114338 570512.301061 0  264638.198419 570687.3443539999 0  265058.220065 571334.378467 0  265447.561421 572077.90485 0  265488.125257 573137.3446020001 0  265131.937715 573963.293593 0  265432.389648 575093.068786 0  265638.122314 576338.029955 0  265750.630817 577371.8281319999 0  265738.570663 578561.9098850001 0  265875.630866 579139.630549 0  266213.129247 579862.311842 0  266563.130472 581112.314509 0  266238.135356 582362.310259 0  265938.12863 583612.320897 0  265738.131342 584762.3210189999 0  266875.638633 585365.358768 0  264018.7239399826 593650.4646671159 0  262236.3944351029 595831.1252656333 0  241846.246678 605206.1436625 0  240200.622106 608424.8903290001 0  240943.4862974102 610939.7757535663 0  236550.6094 599787.3577085 0  238528.1212051503 608102.9081793013 0  244413.4891967989 572609.5960859474 0  236382.0474488751 598808.3067022427 0  235369.601910944 600933.5380148316 0  235413.099011 591037.3503485 0  235446.2251831186 590266.6553871984 0  240475.5921005 578037.3333535 0  240413.173949154 577324.4280286073 0  240574.037899 606283.0066440001 0  263857.9179445 593618.2891454998 0  264153.4303974913 593343.916675058 0  242042.1833925 604946.7714812499 0  241650.3099635 605465.51584375 0  244613.6985165 572229.6575395 0  236631.8579695 598822.2989335 0  235140.029068 600860.444221 0  241767.7287175 604874.0596705 0  242140.15174975 604817.0853906251 0  234781.8558075 600573.1668855001 0  242091.167571125 604881.9284359375 0  234519.3558565 600373.162719 0  254604.8337712102 583989.0014118921 0  250699.5846056537 594617.3297041012 0  250540.4796469513 602258.2940568649 0  248483.7490186612 580334.7345534252 0  258549.2190328319 577893.951823392 0  257067.0067473103 590016.5327808241 0  243285.0921999099 596333.923437875 0  248333.1386145258 589098.0389905117 0  256142.8445072741 595883.3911551933 0  260245.1368072523 583315.2785712298 0  253472.3380211276 578932.2908163272 0  246432.3347504817 599884.5019511909 0  261555.9240922556 588041.186709004 0  247293.1100123104 605823.8307887657 0  246458.2798550911 593168.8646574575 0  252840.0183145193 588226.5564648228 0  249828.2874404451 584740.7888937403 0  255409.5660975206 600458.8956828594 0  260819.9733392385 574219.403683011 0  252584.2262054711 605722.6603825617 0  254049.8830611471 592547.4852571967 0  250015.4356193061 598425.2225922942 0  245872.072249477 577604.9761853142 0  262002.1583249522 579753.4663046852 0  257732.6630933878 586227.970805314 0  250242.5556457866 577017.3316409125 0  244921.6453001869 581816.6358421432 0  256520.3890639471 580904.824006648 0  240779.0970645865 599524.6679555867 0  257100.1829219198 574459.5922545703 0  239912.2630002034 595231.1172704464 0  244703.0875078634 590068.6945953515 0  242549.5490268674 592874.3693043783 0  251586.0465921376 581796.2215047925 0  246643.189997516 596527.447801719 0  251049.7658069622 591057.6752245198 0  253014.5731561695 596998.6601086652 0  238680.2197353724 584542.2309791476 0  259715.365803504 591937.1938619445 0  254097.157218761 575731.4494927844 0  246806.6408589328 586139.0877599345 0  246136.1179750556 602959.471719323 0  253520.7033332401 602835.180253843 0  244125.4295793909 607538.9817227355 0  252546.8895354472 599881.3279113505 0  258289.0983523553 600397.640191779 0  247518.7952199645 583037.3718217331 0  263140.3959879661 582529.2228421422 0  262894.8586894067 585442.3590432997 0  256968.6320599076 593040.7691844478 0  243573.0187527719 600218.2795730785 0  258888.5766127351 595139.7745218446 0  262588.7569809347 576734.8569237856 0  259318.4257992262 580601.2540325444 0  249963.3812725965 607065.7205847671 0  257494.5307999607 583482.5893534871 0  258906.4757205145 572278.8089438241 0  237751.446593475 587300.5805003279 0  255142.4708720699 604956.7580261135 0  258485.4978753244 597756.9250383095 0  255516.7820591553 587791.39641967 0  239758.4692108706 601926.8203218657 0  255873.0092222999 577739.5085867504
[...]
<PointData  Scalars="f_24704-1"> 
<DataArray  type="Float64"  Name="f_24704-1"  format="ascii">4.1465018539412405e+01  4.2786942861238821e+01  4.4791253065931635e+01  4.6625471108698150e+01  4.7972950740966304e+01  5.0029112961456747e+01  5.0701530585119308e+01  5.1135527813247869e+01  5.1182896599273185e+01  5.1851713731410619e+01  5.2293106766308242e+01  5.2103109160213762e+01  5.2248750417241212e+01  5.4733724873228596e+01  5.6176058162331202e+01  5.7375021762655159e+01  5.8873281864618519e+01  6.0372210285283714e+01  6.0324864737558819e+01  6.0784717625498743e+01  6.2962244424127910e+01  6.4693768799873581e+01  6.6681364472780274e+01  6.7723807072183845e+01  6.8278179733744295e+01  6.9585908041843808e+01  6.9963798496886270e+01  7.0696764473015349e+01  7.2049663714689956e+01  7.2849797888986359e+01  7.3029383290134191e+01  7.3462136946092727e+01  7.4580843828209822e+01  7.5511996758854210e+01  7.5690068670432495e+01  7.6600830307687431e+01  7.7867106828160232e+01  7.9204618344684917e+01  8.0160618120960891e+01  8.0967817126178488e+01  8.2178860732950923e+01  8.3321726561496263e+01  8.4338388204129316e+01  8.5227415585985696e+01  8.6014182946429258e+01  8.6179286110327027e+01  8.6603478737798142e+01  8.7152410865481500e+01  8.7586567050950094e+01  8.7788809528306786e+01  8.7829717355865725e+01  8.7869333286218378e+01  8.7852543334009866e+01  8.7937725617552104e+01  8.8152230517644426e+01  8.8135597949253196e+01  8.8138806125027870e+01  8.8228167163510022e+01  8.7993957136776771e+01  8.7262340147312358e+01  8.6438572504193985e+01  8.5760637687664925e+01  8.4673377912388233e+01  8.2919992148586800e+01  8.2727327273157783e+01  8.4944145551226342e+01  8.5515971663917171e+01  8.5646770884114389e+01  8.5798716527182108e+01  8.6012855321742336e+01  8.6298645684989069e+01  8.7355380401644311e+01  8.7759986613059681e+01  8.7993896718444191e+01  8.8047082975044887e+01  8.7788413034725039e+01  8.7186196353839634e+01  8.6585088659738773e+01  8.5962665027482601e+01  8.6337538677533203e+01  8.6643357533364792e+01  8.7071169181881686e+01  8.7195932409967241e+01  8.7187549659523370e+01  8.7233710917270102e+01  8.7205999993209957e+01  8.6920098425173407e+01  8.6008729473641992e+01  8.4516052130743390e+01  8.4345095524593674e+01  8.5833934810623830e+01  8.6476716276118893e+01  8.6671031893681004e+01  8.6522382177894400e+01  8.6609062404734487e+01  8.6452812994864900e+01  8.6438505710966467e+01  8.6233422364465397e+01  8.6143219857632928e+01  8.5854453375311707e+01  8.3579702105171606e+01  8.1194583794851255e+01  7.8102494285706868e+01  7.5146306489775270e+01  7.2322636816108457e+01  6.9982366035267347e+01  6.8142338933027204e+01  6.6457764228037775e+01  6.4749539087235505e+01  6.3197350358821637e+01  6.1259799724795215e+01  6.0572845719999933e+01  6.1007281078959075e+01  6.3991027586397571e+01  6.6331961413829575e+01  6.7281499363538956e+01  6.8254120320207932e+01  6.9959378025712297e+01  7.2279728451695547e+01  7.4967000836976140e+01  7.5732643004010384e+01  7.5741157706647485e+01  7.4587068985338732e+01  7.2330951425345063e+01  7.1916674479619758e+01  7.3955284579152334e+01  7.5337629517082306e+01  7.5813374082833491e+01  7.5817944564277511e+01  7.4339209947490318e+01  6.9669888074918049e+01  6.8948993754401442e+01  6.7875992649957112e+01  6.7290969816272494e+01  6.6383066835106945e+01  6.5251918217548976e+01  6.3884808179006050e+01  6.2563887790299646e+01  6.1393777193452941e+01  6.0897020013440248e+01  6.0600985782446010e+01  6.0501081727825785e+01  6.0194091212502258e+01  6.0102515138471951e+01  6.0113424659500296e+01  6.0537792483475812e+01  6.1169332565118829e+01  6.1249575000655497e+01  6.0045708906409267e+01  5.8720033203372360e+01  5.7502041958057056e+01  5.6759704419935090e+01  5.6433157119284964e+01  5.4942858334715773e+01  5.3592717314504135e+01  5.2373578721426234e+01  5.1992015197783502e+01  5.0824018858256466e+01  4.9356391888414841e+01  4.9408206788914313e+01  4.8922587824744411e+01  4.8087415443741698e+01  4.6145343923674872e+01  4.3889786820209331e+01  4.2443410987758313e+01  4.0847667384813320e+01  3.9523790662426194e+01  3.8259151717320499e+01  3.7522940600232381e+01  3.7067838716364683e+01  3.6051075215796040e+01  3.5450470297732508e+01  3.5382749810391537e+01  3.5282414217769492e+01  3.4777108536597744e+01  3.4339540501105894e+01  3.4013422830111026e+01  3.7521064176430848e+01  4.3725232245660237e+01  3.7597657897561163e+01  3.4863438251033102e+01  3.3094882902425866e+01  3.3281555048515727e+01  3.3275965092669686e+01  3.2963601538458192e+01  3.2568441953272050e+01  3.2201933176857153e+01  3.2245634181273843e+01  3.2743243460454210e+01  3.3516999617110407e+01  3.4284016149162795e+01  3.5034801884435417e+01  3.5999474831654950e+01  3.6494434180324966e+01  3.7125981404380369e+01  3.8480668451851955e+01  4.0268069830428928e+01  4.1202170071761309e+01  4.0987168469779334e+01  4.0945263010268349e+01  5.2242939115463201e+01  6.0537783552185921e+01  8.5271882919023625e+01  8.7692898727394962e+01  8.8125106348306858e+01  8.5293087112007399e+01  8.7972999466097477e+01  4.9247224743841620e+01  8.5097753436888667e+01  8.6633499025762163e+01  7.3478489574387964e+01  7.2689320453255576e+01  6.0257453162359909e+01  6.0121326866425193e+01  8.6899456819178013e+01  5.2243033416602309e+01  5.2122222027420655e+01  8.4986088734143578e+01  8.5533493289433551e+01  4.9246420626912986e+01  8.4203247358277181e+01  8.6633567612557485e+01  8.5672755422880897e+01  8.4833909623295881e+01  8.6578122056837913e+01  8.4910844671499717e+01  8.6577472702496522e+01  4.9055023251833333e+01  6.6710757516810176e+01  7.5857460927948068e+01  5.1429914140657303e+01  3.6363603985819410e+01  5.2728751545044098e+01  7.5227533667090242e+01  6.1012212294841142e+01  6.4485568159312479e+01  4.2082058725425874e+01  4.2717080651461437e+01  7.5354846402935109e+01  4.6749554786200392e+01  8.2186197587778310e+01  6.7538271959820634e+01  5.4006881916680300e+01  5.6605187015109870e+01  6.8754125746003623e+01  3.3755027719333107e+01  7.8179429781411613e+01  6.1595871537679329e+01  7.0469612159849788e+01  5.2178093440293658e+01  3.6776048753991496e+01  4.6596986647744757e+01  4.4994160393165721e+01  5.7565575359088584e+01  4.2787113284228361e+01  8.1383884418012656e+01  3.6649467664564632e+01  7.5946321828010653e+01  6.4270723539224690e+01  7.0182250563868664e+01  5.0734510862470309e+01  7.2608922086341849e+01  6.0171106968388415e+01  6.7720796789512661e+01  6.4948063692137580e+01  5.5784069531590099e+01  3.8595014975653335e+01  5.9661118720142539e+01  7.9825831373316575e+01  7.4646555256754880e+01  8.5669217078761278e+01  7.1035877060848179e+01  6.9578959624606014e+01  5.6341208054395118e+01  3.9547073482338469e+01  4.1832277988444538e+01  5.9401443300816972e+01  7.9273385314547696e+01  6.1126780029311888e+01  3.5188214696024716e+01  3.8834371155415013e+01  8.1340646546971357e+01  4.5088069500005830e+01  3.2278130431885408e+01  6.7901647061181635e+01  7.6034151113468141e+01  6.5392698635384079e+01  4.8630010341441753e+01  8.5281652606110697e+01  3.8202428781712491e+01  5.1006485584792884e+01  6.0039674367852697e+01  6.5294319061993775e+01  5.6446334425627498e+01  4.7034658589514613e+01  4.3884104489775119e+01  5.5977290708932280e+01  4.7927817264112186e+01  4.7819141281406836e+01  4.4728957746892000e+01  4.9280371941520592e+01  8.4716904365231670e+01  7.8695049822638993e+01  5.3009880582254794e+01  8.3297532733663701e+01  7.5921929693361889e+01  7.3600729732478456e+01  8.0714402567594632e+01  6.2724586678952306e+01  5.9200916536252905e+01  6.6083070953897291e+01  7.2410517849956832e+01  5.7931385867772910e+01  7.8333387316103980e+01  5.0227937244662044e+01  6.5634449052147730e+01  3.2667517541904161e+01  4.9198403499374770e+01  6.8975806779251656e+01  7.7678389390282192e+01  6.3388397388545563e+01  7.1067105774960098e+01  6.1913771472783274e+01  7.1827528805924672e+01  3.5694652937591378e+01  5.3122295584149960e+01  5.3439709518002097e+01  7.9951420470582093e+01  6.7218585096016781e+01  3.7482245885989528e+01  7.9502640067431201e+01  6.3563703774156338e+01  8.4409612479098200e+01  3.3479742327449337e+01  8.4956327338898916e+01  8.4881513354425763e+01  5.5357699206889599e+01  5.1058832007765176e+01  8.4952123401009388e+01  8.5943549879571719e+01  8.3101851139093071e+01  8.5247026423772809e+01  7.1613968266862940e+01  3.6176461955057306e+01  8.0928493328147738e+01  7.6022291473142758e+01  5.6228947048474389e+01  5.0638009875621734e+01  4.7414507360074502e+01  8.5684736059016231e+01  8.4874091748424419e+01  5.8549837866660880e+01  8.6003053898766964e+01  8.3876888119405649e+01  8.4378884118838030e+01  8.6090084055929893e+01  5.9849568576644629e+01  4.9127284379013773e+01  7.1339698402697962e+01  3.4279349353934819e+01  4.9198193492415555e+01  3.6559650687586362e+01  6.9336368289843904e+01  8.7466773055749627e+01  6.6823787151819189e+01  7.2878851551953147e+01  8.3573482864936068e+01  6.0165010588294081e+01  3.2538674746944288e+01  7.2154830852502940e+01  3.9536327695929948e+01  5.2450092348158698e+01  8.5016566782213985e+01  8.3044623516303105e+01  6.2181170954378658e+01  8.7471555090402703e+01  4.3801639865111838e+01  8.5553209371851722e+01  6.4031432490320228e+01  3.2611433474699119e+01  3.6349217559321282e+01  3.7500844885038298e+01  7.2630830150889764e+01  8.1995341264609138e+01  8.1321489768579738e+01  6.8820665954646742e+01  8.5412260233667880e+01  6.0200390367334279e+01  4.9125614056157666e+01  4.9114828708596036e+01  3.3181919596685205e+01  8.4949040045065928e+01  8.5131964333276940e+01  8.5204178834336346e+01  7.5752472912622522e+01  8.1733481190371094e+01  8.5264846420559635e+01  8.3697966712741021e+01  6.7077117408500641e+01  8.8075202656883874e+01  8.8023356455180604e+01  6.1257280972978450e+01  3.5084217806613616e+01  6.1129616796987463e+01  8.2220382745898021e+01  5.6102759125405477e+01  6.4767960830572861e+01  8.7661607974776970e+01  6.1928577323903681e+01  7.3528630914808318e+01  4.0961006405611556e+01  5.6488237811622724e+01  5.5716392851835934e+01  5.7111373484045259e+01  8.6017130712765308e+01  5.0477715392719340e+01  5.1351448427759010e+01  4.9514690546240928e+01  5.1220691972840292e+01  4.7522507855710998e+01  3.2929045168996254e+01  3.1499168179205881e+01  5.2398066429463903e+01  5.5092990971323275e+01  7.5490154038800725e+01  7.5415293279292825e+01  8.7880548026139564e+01  6.7059251460605694e+01  6.4809194261949472e+01  6.0739402176685644e+01  6.0336248125222973e+01  6.0439714028102578e+01  6.0663892462048565e+01  6.0332613016647201e+01  6.0377807905973327e+01  6.2353963276912417e+01  6.0536757060368330e+01  6.1213612322806227e+01  6.4180962753602017e+01  6.2550217267504443e+01  5.8739363502378446e+01  6.0246883609594256e+01  4.4923491040680013e+01  4.6585714489877127e+01  4.4742074235255444e+01  4.3163966278017561e+01  4.3665593233201953e+01  4.1691537526005590e+01  4.2933342245146768e+01  4.2238044045907536e+01  3.9010978692493133e+01  3.7848355962910176e+01  3.4138085707436723e+01  3.4648156480646009e+01  3.4577124805701935e+01  3.5499566710533813e+01  3.4975745902763066e+01  3.6250815377049875e+01  3.6241036797228531e+01  3.5461201433924764e+01  3.6812914136573340e+01  3.6445881427105057e+01  3.7284639088270580e+01  3.6713463537261248e+01  3.8021552044995239e+01  4.0309025506642612e+01  3.8938582900708646e+01  4.6621263628140923e+01  4.6468923560507058e+01  4.6732641355260732e+01  4.9840072751315823e+01  6.7724760373433469e+01  6.7108863790988138e+01  6.6229217791960934e+01  6.7679892425905592e+01  7.3856389291815674e+01  7.7341712559656202e+01  7.4825134004750083e+01  7.6957301689307542e+01  5.4042642814788010e+01  4.9883300867107195e+01  5.0030792264780636e+01  5.1984991283555757e+01  3.6759939006835651e+01  3.8431555145707598e+01  3.6700019425946977e+01  3.7258258390092927e+01  3.6871190523695773e+01  3.6156679368616388e+01  5.4659229610134417e+01  5.6230340923194092e+01  5.0409920863698396e+01  5.3819585222844552e+01  5.0807281588121825e+01  7.5629710619593283e+01  7.2826487490033543e+01  6.0223757160485874e+01  6.0128566994148585e+01  6.2506123076007356e+01  5.9628436802368121e+01  6.2186121799208642e+01  6.0794643694283195e+01  6.3308414301746609e+01  6.6220830756950576e+01  6.5177037306824673e+01  3.8510657845712970e+01  4.0132798200598941e+01  4.1931653184724560e+01  4.0593918961544361e+01  4.3322064724433972e+01  4.2622205804358181e+01  4.7172446140063364e+01  3.9819731374205688e+01  4.0197366836330417e+01  4.4990133519971295e+01  4.5391833210859019e+01  7.2636642586357482e+01  7.7353977923248294e+01  7.3997740008322012e+01  7.8217713364984689e+01  8.1129057913031033e+01  7.0429077816923055e+01  6.5315107352781069e+01  6.9235820906423982e+01  6.7153191345128462e+01  5.0914021572080131e+01  5.4821004945882976e+01  5.5995989194168061e+01  5.1409529363440896e+01  7.1905045961268641e+01  6.9095270560499884e+01  6.9322009601811288e+01  6.6685709451302245e+01  3.5128080321149511e+01  3.4306853130875801e+01  6.1387080901439127e+01  6.0318256032992643e+01  5.9059401952516566e+01  7.1195968304640274e+01  6.8864257853692095e+01  7.2319627539979550e+01  6.9074345940776595e+01  5.4211827491395177e+01  5.0253618494084080e+01  5.0528852759673072e+01  5.2300745397717670e+01  5.0893830350153401e+01  5.2633563142902098e+01  3.7581148768460437e+01  3.6382547593299996e+01  3.7391069779375997e+01  3.6411617286883207e+01  3.6963443617156202e+01  3.6777859022432388e+01  4.5793424231839204e+01  4.7073679828820353e+01  4.7688094428122007e+01  4.7048901451094785e+01  4.0818054001531145e+01  4.6279687669177150e+01  4.6309149586176979e+01  4.7372344933414468e+01  4.1641709300355586e+01  4.4252183643901951e+01  5.7079171814196400e+01  5.9023181153585114e+01  5.6741163426315033e+01  5.5714382147023379e+01  4.0629086918088632e+01  4.4335523496874259e+01  3.9854852784101375e+01  4.4903506021708587e+01  3.7685920328647470e+01  3.4875186539914765e+01  3.7483614118957220e+01  3.6161346717122690e+01  3.6416758831272830e+01  3.5557537936319406e+01  3.7119149305294762e+01  6.3313184790969160e+01  6.2972877603967014e+01  6.5586333029964592e+01  6.5875766123672534e+01  7.0589616028120574e+01  4.8953982059306092e+01  4.9396821588688873e+01  7.0722162239390443e+01  6.2593657038690765e+01  5.9200494746477247e+01  5.8472617221503647e+01  6.1914069654810412e+01  6.8938200956248224e+01  6.6974301175539878e+01  6.3737659896121649e+01  6.3482675209922739e+01  5.7528266819349490e+01  5.2658354106194082e+01  3.8616481500093755e+01  3.8832974781901569e+01  3.8013526246036065e+01  5.9201164243167156e+01  6.0622059731673254e+01  7.6304847577365436e+01  7.8925888932696893e+01  7.2786275169855514e+01  7.6734014853439348e+01  7.3242239640755471e+01  7.3158626553106402e+01  6.7669131971149710e+01  6.7333225865269597e+01  5.4930303527591597e+01  3.8440385933111557e+01  5.7372608150087338e+01  5.9063326052349545e+01  3.5312781901839287e+01  3.6042444457873820e+01  3.5188406936102631e+01  4.2378510397462023e+01  4.4907861602675567e+01  5.1935067806123918e+01  4.8473153798198894e+01  4.8778860925999112e+01  5.0561875070192379e+01  5.9723301821217426e+01  6.0027247431870414e+01  6.0636874843777015e+01  6.0755693122475151e+01  6.4479523316727949e+01  6.4170562711745987e+01  5.4721041623902963e+01  5.0245392463621478e+01  4.8469570748227824e+01  5.0821102970227024e+01  4.8572903139362673e+01  4.5695665663283435e+01  4.7052422132226397e+01  5.5498631993093205e+01  5.2064367280022076e+01  7.5851749175237117e+01  5.4039320354529259e+01  5.0878016432067554e+01  6.1979684883431489e+01  6.4903373387919103e+01  6.9088629441040780e+01  6.7057393609067745e+01  3.7004824758896582e+01  3.4220743743978360e+01  3.6921579891334183e+01  5.9982956044557838e+01  3.5891658389797563e+01  6.0781045756978962e+01  4.1673331249159361e+01  3.8331866503089373e+01  6.1524552033927257e+01  4.8016081417129541e+01  6.7680634846758039e+01  3.6519026542341607e+01  3.6993747381041025e+01  3.6390736963125903e+01  3.6535839539640214e+01  3.6324630172089293e+01  6.1427837140841298e+01  4.2923205486127969e+01  4.4983496853748534e+01  4.4011704184397743e+01  7.5522093338901030e+01  5.7926050823956395e+01  5.2429209001407280e+01  5.2554557066768581e+01  5.3702631477334791e+01  3.4972955983494529e+01  6.8851624497318994e+01  6.9470920985346865e+01  3.7275166069657772e+01  3.7009416262145976e+01  4.6271037318695200e+01  4.6535790234459448e+01  4.2776704876349953e+01  5.6486621168941625e+01  5.9890127710641387e+01  6.1269144667239850e+01  5.9005894241188813e+01  6.2096894408035325e+01  3.9437659916702188e+01  3.8106093793520650e+01  3.8654263248946314e+01  3.8314914605109813e+01  6.9276223447684529e+01  3.7988803270582274e+01  3.9656847440147146e+01  4.0560911459566697e+01  4.9380362124873159e+01  4.9629027165206772e+01  5.0073805344011326e+01  4.8302545368386561e+01  3.9144280424143773e+01  3.7671048949864250e+01  3.8452365357897115e+01  4.8933868261167412e+01  7.2963751326639766e+01  7.3637309459652982e+01  7.4711812872828560e+01  6.2397323386239698e+01  6.6609195369404844e+01  5.2005037485092522e+01  4.9557320253797968e+01  4.8777983960963248e+01  5.0052582510080704e+01  6.4007079177346668e+01  6.1119059144319706e+01  6.1805107571730794e+01  3.6229215068959078e+01  3.5999308466565999e+01  3.5871555175472892e+01  5.2577611019134650e+01  5.4409207125097232e+01  5.3893915485219338e+01  5.1844518891270425e+01  6.6027009960408591e+01  3.6045519357702418e+01  3.6299552583982752e+01  3.6235090543464239e+01  6.0579304249295973e+01  6.0339540174896641e+01  6.0401407226493646e+01  4.2776627869052085e+01  4.3986564126771000e+01  4.4699499691043783e+01  3.7546389576262300e+01  3.5270274180273439e+01  3.5587294138980106e+01  6.1487114775078801e+01  6.2919551582071911e+01  6.2105113965071979e+01  6.1281413798214643e+01  6.1303444052530018e+01  6.1679575498866676e+01  6.0962995425557907e+01  4.5110178379724324e+01  3.5671508341563026e+01  4.6817668338295114e+01  6.8282073527583762e+01  5.0956065027561401e+01  5.0408433652564007e+01  3.6380220598781911e+01  3.7388783798140125e+01  3.7421773900377623e+01  3.8639615705382809e+01  3.7988842302442947e+01  3.7095136962131178e+01  5.0441782048783651e+01  4.9255972592211364e+01  4.9577185493485835e+01  6.1071045335314821e+01  6.1340399878417784e+01  3.7841644447238615e+01  3.8694459712137025e+01  4.1203879218934496e+01  4.1786542618901535e+01  4.6321291305537187e+01  4.0065483574446091e+01  3.9968510059374971e+01  3.9185419129141451e+01  4.7564553109145088e+01  7.4976329441643458e+01  5.1306254150482140e+01  5.3338444856677881e+01  5.2691723588944242e+01  6.7536828160680656e+01  6.8205434019868576e+01  6.6863938182243487e+01  5.1353774342561593e+01  5.3439094715278955e+01  5.1494409901622518e+01  4.4937992279369382e+01  5.5277221152159875e+01  5.5077982479793533e+01  3.8142720849030944e+01  3.7826495683877333e+01  6.4364476666235902e+01  6.4034640423189089e+01  6.5153150408127331e+01  3.8375159662397941e+01  3.5974869447496573e+01  </DataArray> 
</PointData> 
</Piece>
</UnstructuredGrid>
</VTKFile>