<?xml version="1.0"?>
<VTKFile type="UnstructuredGrid"  version="0.1"  >
<UnstructuredGrid>
<Piece  NumberOfPoints="784" NumberOfCells="1320">
<Points>
<DataArray  type="Float64"  NumberOfComponents="3"  format="ascii">266913.131276 586512.314988 0  266738.13716 587762.325998 0  266363.132677 589012.328643 0  266175.641078 590169.601714 0  265666.575631 591040.7699119999 0  264875.64001 591687.766419 0  264900.636161 591845.049083 0  266088.14152 592012.3229499999 0  265561.959259 592661.17101 0  264288.136855 593037.368683 0  263865.194033 593999.8486949999 0  263850.641856 593236.729596 0  263625.634872 592756.525286 0  262689.574249 593299.848918 0  262475.636737 594003.0907310001 0  261934.554452 594340.929792 0  261725.631329 594932.094409 0  261729.256443 595728.498809 0  262138.136044 595012.330523 0  262288.141035 596262.333669 0  261488.994028 597511.480605 0  261234.15567 598316.338928 0  260815.635063 599014.863821 0  261400.643658 599389.7367680001 0  261322.963374 600022.185065 0  261119.455248 600931.061306 0  261607.436504 601293.0629359999 0  260807.446929 602089.899812 0  260025.642878 602988.868697 0  259613.135827 603937.3854499999 0  259050.643123 604100.987861 0  258411.880065 603988.6335979999 0  257764.357469 604449.872569 0  257971.239668 605320.429125 0  258041.396867 605740.635381 0  257188.143339 606987.394312 0  256038.141198 608112.3554550001 0  254788.141633 609087.4026939999 0  253588.140656 609812.362881 0  252338.135706 609737.4048949999 0  251088.138116 609787.404055 0  249963.12851 610287.399466 0  248613.130524 610462.365857 0  247363.132198 610687.407659 0  246113.130532 610837.411551 0  245832.347438 610918.209918 0  245016.946433 610958.5639439999 0  244313.129646 610762.372259 0  244400.622144 611378.093316 0  243939.669208 612460.8930899999 0  242960.649733 611984.892792 0  242170.381438 611919.647351 0  241888.122919 611112.375656 0  241393.380757 610467.6456149999 0  240594.157528 611306.369822 0  240525.621947 610804.648112 0  240363.123632 610512.3745050001 0  239113.123247 610262.374278 0  239813.12126 609037.412459 0  240588.122952 607812.368199 0  241013.119545 606625.9534560001 0  241454.373249 605724.888025 0  242238.120107 604687.3993 0  243088.121248 603462.362766 0  242860.319451 603007.3932640001 0  241563.116617 603812.361344 0  241778.400913 604327.642217 0  242059.837234 604824.879102 0  241475.620201 604923.2402390001 0  241462.182234 605449.881372 0  240906.219606 605674.888222 0  240241.856192 606891.125066 0  239891.734044 607841.012479 0  239048.653431 608724.889805 0  238118.054545 608974.895967 0  238888.111029 607337.406468 0  239738.119992 606212.362729 0  240288.12044 605687.4075229999 0  240380.212307 604729.521696 0  239347.309632 604603.204501 0  238888.112036 604387.408787 0  237913.11173 604687.401386 0  236784.172023 604499.882783 0  236883.408793 603717.08334 0  236154.933927 603595.565605 0  235688.103943 602912.369264 0  235763.108033 601662.366516 0  236363.110805 600412.35884 0  236738.107995 599162.356577 0  236525.607944 598482.2412899999 0  236138.109208 599362.357613 0  235725.063048 600325.4466510001 0  235091.948926 601408.5220979999 0  235188.10921 600312.366344 0  234375.602405 600833.9674270001 0  234663.109308 599912.358011 0  234138.105122 600062.365644 0  233955.307245 599029.561063 0  233338.103791 598387.401556 0  233988.09795 597862.356384 0  235138.101489 596637.3947750001 0  235563.1039 595387.392428 0  236513.103639 594212.356312 0  237163.10684 592987.3929869999 0  238313.103031 591862.3515540001 0  239513.107028 590812.3512640001 0  240638.102135 589787.387271 0  241463.109549 588587.378486 0  242294.489816 587443.735215 0  242913.101099 586512.341804 0  243544.066915 585474.859604 0  243040.448415 585184.975583 0  242438.10214 585337.38015 0  241313.102353 586562.339499 0  240538.107104 587787.382449 0  240114.641085 588588.939407 0  239388.100256 589437.382238 0  238188.104456 590512.346358 0  236938.100507 591362.349798 0  235813.10453 592537.396388 0  234864.502938 593178.7753880001 0  234463.097651 592862.357267 0  235113.0965 591662.3545979999 0  235713.101522 590412.346099 0  235777.688431 589976.7582779999 0  234943.583145 590706.265132 0  234462.482256 591490.2841159999 0  233801.497784 592112.940187 0  233388.099101 591787.394208 0  234013.093099 590437.393065 0  234776.217248 587148.7548100001 0  235163.093726 586562.3486189999 0  235313.098918 585483.229012 0  235250.59732 584662.298153 0  235588.093896 583337.379493 0  236329.432041 582199.858992 0  237188.096234 581462.3349939999 0  237463.088521 580212.335511 0  238350.592558 579057.652616 0  238591.415797 578574.847681 0  238313.094106 577612.328905 0  239229.696732 577695.769664 0  240195.161018 577513.008613 0  240614.996733 577149.8518770001 0  240663.091715 577412.332622 0  240288.092486 578662.334085 0  239942.357258 579508.095811 0  240438.100019 580212.3334220001 0  241338.095553 580387.375355 0  241238.099828 579137.369157 0  241788.097003 577887.370889 0  241983.554649 577241.9220939999 0  242054.178239 576927.8105029999 0  242588.100699 575737.366175 0  243149.324833 574898.583978 0  243695.278626 573919.517981 0  244268.494418 573724.8454239999 0  244995.134063 573930.2767810001 0  245417.314363 573391.601898 0  243450.599125 571859.479773 0  245776.797908 572599.8353060001 0  246779.639852 572973.285167 0  248034.741935 573186.082054 0  249413.10651 573162.3205520001 0  250496.922226 573271.1521899999 0  251613.105126 573237.3551319999 0  252421.824577 572846.032906 0  253256.245022 572580.4733130001 0  253739.471933 571960.9547369999 0  254174.511864 572149.8346569999 0  254484.944333 571684.194807 0  254384.108649 570891.346712 0  254344.002752 570218.26407 0  255025.609604 570829.0294979999 0  255715.005913 570489.264586 0  256218.846343 570774.828355 0  256834.349083 570508.5908 0  257390.092515 570014.308325 0  257624.431042 568493.478911 0  259355.811717 569380.021819 0  260033.372814 569617.066669 0  262679.741751 570320.699974 0  263289.115756 569524.817815 0  263463.114338 570512.301061 0  264638.198419 570687.3443539999 0  265058.220065 571334.378467 0  265447.561421 572077.90485 0  265488.125257 573137.3446020001 0  265131.937715 573963.293593 0  265432.389648 575093.068786 0  265638.122314 576338.029955 0  265750.630817 577371.8281319999 0  265738.570663 578561.9098850001 0  265875.630866 579139.630549 0  266213.129247 579862.311842 0  266563.130472 581112.314509 0  266238.135356 582362.310259 0  265938.12863 583612.320897 0  265738.131342 584762.3210189999 0  266875.638633 585365.358768 0  264018.7239399826 593650.4646671159 0  262236.3944351029 595831.1252656333 0  241846.246678 605206.1436625 0  240200.622106 608424.8903290001 0  240943.4862974102 610939.7757535663 0  236550.6094 599787.3577085 0  238528.1212051503 608102.9081793013 0  244413.4891967989 572609.5960859474 0  236382.0474488751 598808.3067022427 0  235369.601910944 600933.5380148316 0  235413.099011 591037.3503485 0  235446.2251831186 590266.6553871984 0  240475.5921005 578037.3333535 0  240413.173949154 577324.4280286073 0  240574.037899 606283.0066440001 0  263857.9179445 593618.2891454998 0  264153.4303974913 593343.916675058 0  242042.1833925 604946.7714812499 0  241650.3099635 605465.51584375 0  244613.6985165 572229.6575395 0  236631.8579695 598822.2989335 0  235140.029068 600860.444221 0  241767.7287175 604874.0596705 0  242140.15174975 604817.0853906251 0  234781.8558075 600573.1668855001 0  242091.167571125 604881.9284359375 0  234519.3558565 600373.162719 0  254604.8337712102 583989.0014118921 0  250699.5846056537 594617.3297041012 0  250540.4796469513 602258.2940568649 0  248483.7490186612 580334.7345534252 0  258549.2190328319 577893.951823392 0  257067.0067473103 590016.5327808241 0  243285.0921999099 596333.923437875 0  248333.1386145258 589098.0389905117 0  256142.8445072741 595883.3911551933 0  260245.1368072523 583315.2785712298 0  253472.3380211276 578932.2908163272 0  246432.3347504817 599884.5019511909 0  261555.9240922556 588041.186709004 0  247293.1100123104 605823.8307887657 0  246458.2798550911 593168.8646574575 0  252840.0183145193 588226.5564648228 0  249828.2874404451 584740.7888937403 0  255409.5660975206 600458.8956828594 0  260819.9733392385 574219.403683011 0  252584.2262054711 605722.6603825617 0  254049.8830611471 592547.4852571967 0  250015.4356193061 598425.2225922942 0  245872.072249477 577604.9761853142 0  262002.1583249522 579753.4663046852 0  257732.6630933878 586227.970805314 0  250242.5556457866 577017.3316409125 0  244921.6453001869 581816.6358421432 0  256520.3890639471 580904.824006648 0  240779.0970645865 599524.6679555867 0  257100.1829219198 574459.5922545703 0  239912.2630002034 595231.1172704464 0  244703.0875078634 590068.6945953515 0  242549.5490268674 592874.3693043783 0  251586.0465921376 581796.2215047925 0  246643.189997516 596527.447801719 0  251049.7658069622 591057.6752245198 0  253014.5731561695 596998.6601086652 0  238680.2197353724 584542.2309791476 0  259715.365803504 591937.1938619445 0  254097.157218761 575731.4494927844 0  246806.6408589328 586139.0877599345 0  246136.1179750556 602959.471719323 0  253520.7033332401 602835.180253843 0  244125.4295793909 607538.9817227355 0  252546.8895354472 599881.3279113505 0  258289.0983523553 600397.640191779 0  247518.7952199645 583037.3718217331 0  263140.3959879661 582529.2228421422 0  262894.8586894067 585442.3590432997 0  256968.6320599076 593040.7691844478 0  243573.0187527719 600218.2795730785 0  258888.5766127351 595139.7745218446 0  262588.7569809347 576734.8569237856 0  259318.4257992262 580601.2540325444 0  249963.3812725965 607065.7205847671 0  257494.5307999607 583482.5893534871 0  258906.4757205145 572278.8089438241 0  237751.446593475 587300.5805003279 0  255142.4708720699 604956.7580261135 0  258485.4978753244 597756.9250383095 0  255516.7820591553 587791.39641967 0  239758.4692108706 601926.8203218657 0  255873.0092222999 577739.5085867504
[...]
<PointData  Scalars="f_32-1"> 
<DataArray  type="Float64"  Name="f_32-1"  format="ascii">3.7427369790932595e+01  3.8659780228522216e+01  4.0581068389588452e+01  4.2357215042921958e+01  4.3650572677328235e+01  4.5478622288898443e+01  4.6077142139020289e+01  4.6245705702214998e+01  4.6418069646774626e+01  4.7513161326712115e+01  4.8293977835243730e+01  4.7890968392941410e+01  4.7712908811068161e+01  4.9739401264738795e+01  5.0906635736509855e+01  5.1957849575245852e+01  5.3205223607088243e+01  5.4371564700805848e+01  5.4045155612421340e+01  5.4704846299421945e+01  5.7013213016279302e+01  5.8630141659149515e+01  6.0317809902330666e+01  6.1161160481530509e+01  6.1683796306427460e+01  6.3042292243402628e+01  6.3410021133974340e+01  6.4220074220976073e+01  6.5630333969280926e+01  6.6414019301270955e+01  6.6562751174422118e+01  6.6866472239661263e+01  6.7703692481017185e+01  6.8452540340046355e+01  6.8600585328802339e+01  6.9466713848302433e+01  7.0672226268012963e+01  7.1965939600266168e+01  7.2954611740000090e+01  7.3684911350483461e+01  7.4785875558019995e+01  7.5825003465054763e+01  7.6741705862125812e+01  7.7530588402777028e+01  7.8227050148605144e+01  7.8367284203935284e+01  7.8711020111721439e+01  7.9164516212914947e+01  7.9564903989845789e+01  7.9784625149845468e+01  7.9859246606575056e+01  7.9924901411267768e+01  7.9877591125753455e+01  7.9932521063649276e+01  8.0199532648981332e+01  8.0172994575828170e+01  8.0168939938211608e+01  8.0288415009382973e+01  7.9978578341121377e+01  7.9251108939658323e+01  7.8502290812378021e+01  7.7860004579763327e+01  7.6891509935159746e+01  7.5340658228525541e+01  7.5096724641729821e+01  7.6999180439557662e+01  7.7501794342784692e+01  7.7610388719522462e+01  7.7780264969085920e+01  7.8008494444269019e+01  7.8286016623579428e+01  7.9245144656757290e+01  7.9663393548466431e+01  7.9997882786594630e+01  8.0089546250165284e+01  7.9703894898799220e+01  7.9085742731587828e+01  7.8549011930870975e+01  7.7989879905923118e+01  7.8387446477859982e+01  7.8692045792372213e+01  7.9089212923584356e+01  7.9198848221285161e+01  7.9198102100304737e+01  7.9261390109412247e+01  7.9246711637601820e+01  7.8970825449829547e+01  7.8164116108208276e+01  7.6853066911746879e+01  7.6725052467079990e+01  7.8078126752458616e+01  7.8707385925766729e+01  7.8903735566207530e+01  7.8775583865067745e+01  7.8911118947716901e+01  7.8758928101531239e+01  7.8780056446011315e+01  7.8612873420488725e+01  7.8549725994664797e+01  7.8262267723668913e+01  7.6162228305634144e+01  7.3901038378931659e+01  7.0898526771490552e+01  6.8011339293833146e+01  6.5209085790076770e+01  6.3123687139326179e+01  6.1641702622322200e+01  6.0352570817455700e+01  5.8889957526319520e+01  5.7599053540331752e+01  5.6058563122712968e+01  5.5656530102649640e+01  5.6125620205588199e+01  5.8573064732255801e+01  6.0330030800939639e+01  6.1065426337706938e+01  6.1879273106128977e+01  6.3367585653568305e+01  6.5600722378687891e+01  6.8770253608811359e+01  6.9911153803546242e+01  6.9926410999171196e+01  6.8278091423907981e+01  6.5664012153446777e+01  6.5272428763641130e+01  6.7530784057755582e+01  6.9217409159825451e+01  6.9887007136619886e+01  6.9903355200306848e+01  6.7988119324166178e+01  6.3359590352279447e+01  6.2707483091782024e+01  6.1796783472549699e+01  6.1315819567201835e+01  6.0465022906279245e+01  5.9336113646302145e+01  5.8060746822866129e+01  5.6885433031042581e+01  5.5737467068046648e+01  5.5222745459694870e+01  5.4939656417292980e+01  5.4733402728018113e+01  5.4190497386456521e+01  5.4035639600993399e+01  5.4054183657854999e+01  5.4662168055200098e+01  5.5373549521603870e+01  5.5516327672230602e+01  5.4603963883619322e+01  5.3566360008324757e+01  5.2485839120253146e+01  5.1828808002668588e+01  5.1543141183083556e+01  5.0126431647427566e+01  4.8778103396075835e+01  4.7455652444514065e+01  4.7060166914089400e+01  4.6024755371898607e+01  4.4680441829757321e+01  4.5084703808818354e+01  4.4250633535251886e+01  4.3408565124133240e+01  4.1741549000830730e+01  3.9794594932158468e+01  3.8568817891823365e+01  3.7195758543993279e+01  3.6025390812933836e+01  3.4842231721104390e+01  3.4151298503572704e+01  3.3740956854557666e+01  3.2768953897847197e+01  3.2121123008566869e+01  3.2019052386389696e+01  3.1903809208061205e+01  3.1298138618201257e+01  3.0868648254648829e+01  2.9872565460358206e+01  2.8824618093785574e+01  3.0714067241375560e+01  2.8130988900969520e+01  2.8381604313681848e+01  3.0038579228995534e+01  2.9867573632851922e+01  3.0615137974442494e+01  2.9811897389773126e+01  2.9139762605228633e+01  2.8807525371036977e+01  2.9059850126714267e+01  2.9617871019697922e+01  3.0301346933012542e+01  3.0997360010919913e+01  3.1802332230959294e+01  3.2866304537329249e+01  3.3172017957222593e+01  3.3458284001591899e+01  3.4717136300485940e+01  3.6819279773937012e+01  3.7621738684820180e+01  3.6925498069341316e+01  3.6859560032917926e+01  4.8190704023059169e+01  5.4415244224459229e+01  7.7410032833395775e+01  7.9655923286287219e+01  8.0161624090194579e+01  7.7533717985047119e+01  7.9965075641955096e+01  4.4809579442988095e+01  7.7413764595562341e+01  7.8866060710651567e+01  6.6921699941681439e+01  6.6127516203708865e+01  5.4283969720027081e+01  5.4067869371657814e+01  7.8832719137703535e+01  4.8191242158896685e+01  4.7947947513616285e+01  7.7160411977004756e+01  7.7650301551627749e+01  4.4808377710194456e+01  7.6574500653170261e+01  7.8865917985126870e+01  7.7641279769673247e+01  7.7029429713455158e+01  7.8871933897671482e+01  7.7095926272259476e+01  7.8871763127406410e+01  4.5276718537448055e+01  6.1366907398669213e+01  6.9098192029960686e+01  4.7631711858643961e+01  3.3932991071636351e+01  4.9745862582609377e+01  6.8279714561592598e+01  5.6362027059463436e+01  5.8613093463301801e+01  3.8359483109309807e+01  4.0368768232191464e+01  6.9496361442058628e+01  4.2319946626363652e+01  7.4549110583842591e+01  6.1987303119920192e+01  5.1012101881290405e+01  5.1768744798300588e+01  6.3711235012777529e+01  3.0799337795446046e+01  7.0855474292400885e+01  5.6384625054100511e+01  6.5617607289514666e+01  4.7775552163097828e+01  3.3991961166388492e+01  4.3915913937313519e+01  4.1521452747546391e+01  5.2684136744409841e+01  3.9425257329750963e+01  7.3767745467919696e+01  3.3486971472680302e+01  6.8648932873723695e+01  6.0244134014794682e+01  6.3538922068066952e+01  4.6116309455710244e+01  6.6128732244937368e+01  5.6347327339343543e+01  6.2494473801454532e+01  5.9187482150484819e+01  5.0891756355542938e+01  3.5611508700469315e+01  5.4565133238320591e+01  7.2710384658556535e+01  6.7881288010759150e+01  7.7772773192844269e+01  6.5426962624204492e+01  6.3390770013479120e+01  5.1223468244897738e+01  3.6114295990885097e+01  3.7714215981271337e+01  5.4595433352069435e+01  7.1874275990109425e+01  5.5364249310275468e+01  3.2024651227609318e+01  3.6031946553768975e+01  7.3816818729315216e+01  4.1410596212395397e+01  2.8868243239772905e+01  6.1585583324111965e+01  6.8936466144841305e+01  5.9363101874062615e+01  4.7278003857331093e+01  7.7888985279316756e+01  3.5766648315554519e+01  4.6192927925451684e+01  5.4957516465105279e+01  5.9924147909785539e+01  5.1539195110827997e+01  4.3046090202425049e+01  3.9655387307552282e+01  5.2496969234069368e+01  4.4062912791522862e+01  4.3705348478516839e+01  4.0517852129092780e+01  4.5555269727649993e+01  7.6902921910456769e+01  7.1340496015985281e+01  4.8345128204493960e+01  7.5620038645573501e+01  6.8942188768990690e+01  6.8716175610048879e+01  7.3175354226423849e+01  5.7067314450098671e+01  5.3769410794164628e+01  6.1437414529482915e+01  6.5910892970297041e+01  5.3045148560587243e+01  7.1399993738236503e+01  4.7545756753722124e+01  5.9771247881455785e+01  2.9517302931671640e+01  4.5959826958357240e+01  6.3101862494344580e+01  7.0275585597546595e+01  5.9775235763526176e+01  6.4467588020371338e+01  5.7400559135331847e+01  6.4825926454768052e+01  3.2947668985425537e+01  4.9583837718302178e+01  4.8527974876814604e+01  7.2561855420620773e+01  6.2284842757390628e+01  3.4361123395827711e+01  7.2125058822922469e+01  5.8147648306089899e+01  7.6894924964496454e+01  3.0401780087700008e+01  7.7106997465987831e+01  7.7055124768824186e+01  5.0491380729524870e+01  4.6411730278869719e+01  7.7126573075114649e+01  7.8072243361792559e+01  7.5459848122698176e+01  7.7628520987674563e+01  6.5203039892684473e+01  3.2936684822936769e+01  7.3561251801843156e+01  6.8912991294650695e+01  5.1299832600590534e+01  4.6035289361926381e+01  4.2839818568278552e+01  7.7772939459236099e+01  7.7062921233034729e+01  5.3113822749141626e+01  7.8213217346799865e+01  7.6206443836898742e+01  7.6636452923309932e+01  7.8260073578453472e+01  5.4717190985156584e+01  4.4620588730694692e+01  6.4640784521737757e+01  3.1140958384313716e+01  4.4517115019207644e+01  3.3846157759801926e+01  6.2885267214568145e+01  7.9412283448859810e+01  6.0744824313678841e+01  6.6430248290730077e+01  7.5967587696229060e+01  5.5189470184088961e+01  2.7987924264413248e+01  6.5639561081899927e+01  3.6152631634805346e+01  4.7608751931161464e+01  7.7367910751142915e+01  7.5576092174478816e+01  5.6373018832244632e+01  7.9421047147683865e+01  4.0200270281448226e+01  7.7891190523426317e+01  5.8077144762791860e+01  2.9578994434818757e+01  3.3085467331762253e+01  3.4003562504713663e+01  6.6158914985844604e+01  7.4478222678747713e+01  7.3757945235774372e+01  6.2472746753447446e+01  7.7533137224872277e+01  5.4456594228752692e+01  4.4567415735512384e+01  4.4557834711914879e+01  2.9495557836651329e+01  7.7128754424737423e+01  7.7286154152592246e+01  7.7348184777037218e+01  6.8662244193280870e+01  7.4211715669765866e+01  7.7477247227520991e+01  7.6050350338947382e+01  6.0903497806433123e+01  8.0092197798649849e+01  8.0015569566900595e+01  5.5776965693937250e+01  3.2096933528536049e+01  5.5402836856461455e+01  7.4664908191996219e+01  5.0890295962946837e+01  5.8872181782965910e+01  7.9650656242966221e+01  5.6665315043415163e+01  6.6800436270596961e+01  3.7300894020833987e+01  5.1576024880347468e+01  5.0873649286256509e+01  5.2100676119174501e+01  7.8307226833278307e+01  4.5881446558035172e+01  4.6778786978675782e+01  4.4938638228093183e+01  4.6656023448744619e+01  4.3100665632751287e+01  3.0044675492258353e+01  2.8193053599475313e+01  4.7530704975278113e+01  5.0220512178239538e+01  6.9534727698729085e+01  6.9427122579517359e+01  7.9850779766672545e+01  6.1003771151909532e+01  5.9308578266352569e+01  5.5546670082440968e+01  5.5078035600036785e+01  5.5358351035166940e+01  5.5791667066264381e+01  5.5308522991746699e+01  5.5462907616136000e+01  5.7274485045977727e+01  5.5613800918250007e+01  5.6113928200366075e+01  5.8620444704816265e+01  5.7262677527281639e+01  5.3534658790939815e+01  5.4939944287502861e+01  4.0682131618802764e+01  4.2403723405053896e+01  4.0688464612340205e+01  3.9171727190825990e+01  3.9778686952121824e+01  3.7916614681616565e+01  3.9168112827060497e+01  3.8567712817900443e+01  3.5527409924760150e+01  3.4401597267836181e+01  3.0942127561845396e+01  3.1368300273086085e+01  3.1380293803849547e+01  3.2358443813810887e+01  3.1844878511068789e+01  3.3052579676679720e+01  3.3255469700639956e+01  3.2480388763621285e+01  3.3315013046936777e+01  3.3362787381890172e+01  3.3903938150011349e+01  3.3435937151239408e+01  3.4465806231836510e+01  3.7218762497200430e+01  3.5541828739538964e+01  4.4434863595948620e+01  4.2556246952274314e+01  4.3239811992180698e+01  4.6640036271339305e+01  6.3359021530955111e+01  6.1928866300717324e+01  6.0679740659332538e+01  6.2246837237005181e+01  6.7433847993233087e+01  7.0225896713260056e+01  6.8891741906286285e+01  7.0210291538934186e+01  4.9995517541298135e+01  4.5837280005877972e+01  4.6841559666383773e+01  4.8854426730413174e+01  3.4218665973183263e+01  3.5682975429472691e+01  3.3826107723372736e+01  3.4674346228635706e+01  3.4184639282254778e+01  3.3807937211061770e+01  5.0391612678942799e+01  5.2660145309941271e+01  4.8349771104490088e+01  5.0890615200010522e+01  4.7626926619876137e+01  6.8747800872074009e+01  6.6292795056805218e+01  5.6242776849162951e+01  5.5468280007354906e+01  5.7975221599638701e+01  5.4776383752369263e+01  5.7896948545949336e+01  5.6873787591492075e+01  5.7716028639466529e+01  6.0646673227294635e+01  5.9285742242705922e+01  3.5577682583058660e+01  3.6652494325069377e+01  3.7975185038852111e+01  3.7373664137448856e+01  4.0313249247878701e+01  3.9797428436694695e+01  4.3693219006360479e+01  3.7487738649398139e+01  3.7980358053748660e+01  4.1813721674891752e+01  4.2452125029582895e+01  6.7717177544784704e+01  7.1105643310842055e+01  6.9179375757346605e+01  7.1436894542242413e+01  7.3669311600980961e+01  6.4023521836622010e+01  6.1038942804599401e+01  6.3077840900047420e+01  6.2203730762489897e+01  4.8977573254304460e+01  5.1966324691667324e+01  5.1941834478998643e+01  4.8756474040109140e+01  6.5959604658680774e+01  6.4030984915583048e+01  6.3627647317778582e+01  6.2170042717502000e+01  3.2060461925862484e+01  3.0965646458938750e+01  5.6360810194863205e+01  5.5606083058320159e+01  5.4551022324218366e+01  6.5747470829947147e+01  6.4093075481706151e+01  6.7267686525030939e+01  6.4306716019062890e+01  4.9624972934423411e+01  4.6038373340675541e+01  4.6762202295965587e+01  4.8095416896761421e+01  4.6378810323691361e+01  4.7906758939056800e+01  3.4530877900131756e+01  3.3535617059335337e+01  3.4763543228343707e+01  3.3648825092040951e+01  3.4058227709456148e+01  3.4124657556217308e+01  4.2605735265874458e+01  4.5616288260241902e+01  4.4546595418901752e+01  4.5752191223641503e+01  3.7897347601533227e+01  4.2688664625484719e+01  4.2548406279603427e+01  4.3832908284460721e+01  3.8502945195423138e+01  4.0797146356258040e+01  5.2872787090907138e+01  5.3870276649987964e+01  5.1816769918585202e+01  5.2084453916956463e+01  3.7487973607046484e+01  4.0557904766065825e+01  3.7197423111256875e+01  4.1266846498917133e+01  3.4669709786035163e+01  3.1743497278190105e+01  3.4644618151184169e+01  3.3224377528190701e+01  3.3197504892688301e+01  3.2413330223879697e+01  3.3887373333083744e+01  6.0370450505137747e+01  5.8612882817723268e+01  6.1578295657471820e+01  6.0595898706534200e+01  6.4097536334115020e+01  4.4648164959988357e+01  4.5183086438995097e+01  6.4540638601605366e+01  5.8183367538405214e+01  5.5004210590556411e+01  5.4516940769802240e+01  5.7219728447848823e+01  6.3917240189579559e+01  6.1983932844922869e+01  5.8105029180048540e+01  5.7984938267426976e+01  5.2575858750962382e+01  4.8213676294985817e+01  3.6326443274424264e+01  3.5441584121873539e+01  3.4579272990626869e+01  5.3964364158925420e+01  5.5998097418463360e+01  7.0621733302952137e+01  7.2032787955515786e+01  6.6605774512279538e+01  6.9597298320920004e+01  6.6771691926223440e+01  6.7211473391095168e+01  6.3007537984924745e+01  6.1992162965206425e+01  5.2269862932748666e+01  3.5175073570620135e+01  5.3804991831908836e+01  5.3654190502252952e+01  3.2204645035880148e+01  3.3441193658558284e+01  3.2164670967738168e+01  3.8810280443645851e+01  4.1038171354408881e+01  4.9650861602398294e+01  4.6397249089279086e+01  4.7211072507795670e+01  4.6055647468864983e+01  5.4700252185988433e+01  5.5006588509871627e+01  5.5384295847302859e+01  5.5630816306281886e+01  5.9603167480060812e+01  5.9096418444030832e+01  5.0231410954058099e+01  4.5732317421197706e+01  4.4912089147585348e+01  4.6344822864682527e+01  4.4728836736674666e+01  4.1841304036519254e+01  4.2951589015463661e+01  5.0972600317099420e+01  4.8078359705757606e+01  7.0023860469194943e+01  5.0128633285860857e+01  4.7457830533600081e+01  5.8408273797658886e+01  6.1597705270067550e+01  6.2989940727962491e+01  6.1586897263009156e+01  3.4117997274132549e+01  3.1106060293404834e+01  3.3595991189605698e+01  5.4969296493962219e+01  3.3246816272245724e+01  5.5689979206650357e+01  3.8290297747258833e+01  3.4749926018773500e+01  5.6229186168525523e+01  4.5562966870110380e+01  6.2864247048243847e+01  3.4128407330728507e+01  3.4398262451969565e+01  3.3804040742441664e+01  3.3956568621232158e+01  3.3754150861861632e+01  5.7430413457252762e+01  4.0392622532305964e+01  4.2275059631476097e+01  4.1529905997807816e+01  7.0142475376198931e+01  5.4239467870668236e+01  5.0016221041159000e+01  4.9780372449591411e+01  5.0313872923105357e+01  3.1978374110839706e+01  6.4428046144834482e+01  6.4884683252524127e+01  3.4502188379318575e+01  3.4127657536652379e+01  4.4114104112350013e+01  4.4824370752537376e+01  3.9586305983229089e+01  5.3021975356583070e+01  5.6223130161435108e+01  5.7271769287038907e+01  5.5340563911772421e+01  5.7681464282334915e+01  3.6524827226254160e+01  3.5128142338501675e+01  3.5407427483000852e+01  3.5086604553269169e+01  6.4180537422879070e+01  3.5310481351131614e+01  3.6707289296866662e+01  3.7426756944579147e+01  4.7745878662513775e+01  4.8078354001182149e+01  4.8354540554354493e+01  4.6816025275357980e+01  3.6894871059281037e+01  3.5047182502446077e+01  3.6144817783702841e+01  4.6044381000091803e+01  6.8257196377682220e+01  6.8962952024566903e+01  6.9696771725248482e+01  5.6982371027878450e+01  6.2102340186983604e+01  4.8734661605544858e+01  4.6444092822017204e+01  4.5522723449267524e+01  4.6857755414356077e+01  6.0740276963567922e+01  5.7101231246044435e+01  5.7813487946004507e+01  3.3744096933636492e+01  3.3510825332652267e+01  3.3127977184825923e+01  4.8578699278987479e+01  5.0999809812485260e+01  5.1246347148192079e+01  4.8240415932605146e+01  6.2060328315699067e+01  3.3294163212926549e+01  3.3816043760160142e+01  3.3649636829216398e+01  5.5567918195084744e+01  5.5296048715880431e+01  5.5381216655768348e+01  3.9408643055734785e+01  4.0481949287138669e+01  4.0983149251669069e+01  3.4242885986039724e+01  3.2321412009921168e+01  3.2791456278306626e+01  5.6305263868882697e+01  5.7542240307562615e+01  5.6843561156934008e+01  5.6104121490238178e+01  5.6135660995786402e+01  5.6426749631852822e+01  5.5867713476872453e+01  4.1207222917972977e+01  3.2860548182660615e+01  4.5124578487203735e+01  6.3814192606032030e+01  4.7698595574210401e+01  4.7232902656860098e+01  3.4000081332552504e+01  3.4726077482399340e+01  3.4841401889667836e+01  3.5823965272943887e+01  3.5310840346245989e+01  3.4324631644106269e+01  4.8041146767216567e+01  4.7331137542972087e+01  4.7017109063058612e+01  5.7173076230061184e+01  5.7621542857179435e+01  3.4882269994279703e+01  3.5471240238260663e+01  3.8605233779080336e+01  3.8848405826940443e+01  4.3203851057138316e+01  3.7376096336462595e+01  3.7543193942896842e+01  3.7031405621644950e+01  4.3930007899185000e+01  6.9937656533164770e+01  4.9293972893356354e+01  5.0815822375535099e+01  4.9390347138165787e+01  6.2887354206996633e+01  6.3395029681032241e+01  6.2395049326170579e+01  4.7362824724057980e+01  4.9118755828079316e+01  4.7635027794709949e+01  4.1287273849401274e+01  5.2553202814881750e+01  5.0920439696434201e+01  3.5502098255076156e+01  3.4634071130068534e+01  6.1149533508091579e+01  6.1024483245752336e+01  6.1724270680799442e+01  3.4906399816722903e+01  3.3386251910229085e+01  </DataArray> 
</PointData> 
</Piece>
</UnstructuredGrid>
</VTKFile>