<?xml version="1.0"?>
<VTKFile type="UnstructuredGrid"  version="0.1"  >
<UnstructuredGrid>
<Piece  NumberOfPoints="784" NumberOfCells="1320">
<Points>
<DataArray  type="Float64"  NumberOfComponents="3"  format="ascii">266913.131276 586512.314988 0  266738.13716 587762.325998 0  266363.132677 589012.328643 0  266175.641078 590169.601714 0  265666.575631 591040.7699119999 0  264875.64001 591687.766419 0  264900.636161 591845.049083 0  266088.14152 592012.3229499999 0  265561.959259 592661.17101 0  264288.136855 593037.368683 0  263865.194033 593999.8486949999 0  263850.641856 593236.729596 0  263625.634872 592756.525286 0  262689.574249 593299.848918 0  262475.636737 594003.0907310001 0  261934.554452 594340.929792 0  261725.631329 594932.094409 0  261729.256443 595728.498809 0  262138.136044 595012.330523 0  262288.141035 596262.333669 0  261488.994028 597511.480605 0  261234.15567 598316.338928 0  260815.635063 599014.863821 0  261400.643658 599389.7367680001 0  261322.963374 600022.185065 0  261119.455248 600931.061306 0  261607.436504 601293.0629359999 0  260807.446929 602089.899812 0  260025.642878 602988.868697 0  259613.135827 603937.3854499999 0  259050.643123 604100.987861 0  258411.880065 603988.6335979999 0  257764.357469 604449.872569 0  257971.239668 605320.429125 0  258041.396867 605740.635381 0  257188.143339 606987.394312 0  256038.141198 608112.3554550001 0  254788.141633 609087.4026939999 0  253588.140656 609812.362881 0  252338.135706 609737.4048949999 0  251088.138116 609787.404055 0  249963.12851 610287.399466 0  248613.130524 610462.365857 0  247363.132198 610687.407659 0  246113.130532 610837.411551 0  245832.347438 610918.209918 0  245016.946433 610958.5639439999 0  244313.129646 610762.372259 0  244400.622144 611378.093316 0  243939.669208 612460.8930899999 0  242960.649733 611984.892792 0  242170.381438 611919.647351 0  241888.122919 611112.375656 0  241393.380757 610467.6456149999 0  240594.157528 611306.369822 0  240525.621947 610804.648112 0  240363.123632 610512.3745050001 0  239113.123247 610262.374278 0  239813.12126 609037.412459 0  240588.122952 607812.368199 0  241013.119545 606625.9534560001 0  241454.373249 605724.888025 0  242238.120107 604687.3993 0  243088.121248 603462.362766 0  242860.319451 603007.3932640001 0  241563.116617 603812.361344 0  241778.400913 604327.642217 0  242059.837234 604824.879102 0  241475.620201 604923.2402390001 0  241462.182234 605449.881372 0  240906.219606 605674.888222 0  240241.856192 606891.125066 0  239891.734044 607841.012479 0  239048.653431 608724.889805 0  238118.054545 608974.895967 0  238888.111029 607337.406468 0  239738.119992 606212.362729 0  240288.12044 605687.4075229999 0  240380.212307 604729.521696 0  239347.309632 604603.204501 0  238888.112036 604387.408787 0  237913.11173 604687.401386 0  236784.172023 604499.882783 0  236883.408793 603717.08334 0  236154.933927 603595.565605 0  235688.103943 602912.369264 0  235763.108033 601662.366516 0  236363.110805 600412.35884 0  236738.107995 599162.356577 0  236525.607944 598482.2412899999 0  236138.109208 599362.357613 0  235725.063048 600325.4466510001 0  235091.948926 601408.5220979999 0  235188.10921 600312.366344 0  234375.602405 600833.9674270001 0  234663.109308 599912.358011 0  234138.105122 600062.365644 0  233955.307245 599029.561063 0  233338.103791 598387.401556 0  233988.09795 597862.356384 0  235138.101489 596637.3947750001 0  235563.1039 595387.392428 0  236513.103639 594212.356312 0  237163.10684 592987.3929869999 0  238313.103031 591862.3515540001 0  239513.107028 590812.3512640001 0  240638.102135 589787.387271 0  241463.109549 588587.378486 0  242294.489816 587443.735215 0  242913.101099 586512.341804 0  243544.066915 585474.859604 0  243040.448415 585184.975583 0  242438.10214 585337.38015 0  241313.102353 586562.339499 0  240538.107104 587787.382449 0  240114.641085 588588.939407 0  239388.100256 589437.382238 0  238188.104456 590512.346358 0  236938.100507 591362.349798 0  235813.10453 592537.396388 0  234864.502938 593178.7753880001 0  234463.097651 592862.357267 0  235113.0965 591662.3545979999 0  235713.101522 590412.346099 0  235777.688431 589976.7582779999 0  234943.583145 590706.265132 0  234462.482256 591490.2841159999 0  233801.497784 592112.940187 0  233388.099101 591787.394208 0  234013.093099 590437.393065 0  234776.217248 587148.7548100001 0  235163.093726 586562.3486189999 0  235313.098918 585483.229012 0  235250.59732 584662.298153 0  235588.093896 583337.379493 0  236329.432041 582199.858992 0  237188.096234 581462.3349939999 0  237463.088521 580212.335511 0  238350.592558 579057.652616 0  238591.415797 578574.847681 0  238313.094106 577612.328905 0  239229.696732 577695.769664 0  240195.161018 577513.008613 0  240614.996733 577149.8518770001 0  240663.091715 577412.332622 0  240288.092486 578662.334085 0  239942.357258 579508.095811 0  240438.100019 580212.3334220001 0  241338.095553 580387.375355 0  241238.099828 579137.369157 0  241788.097003 577887.370889 0  241983.554649 577241.9220939999 0  242054.178239 576927.8105029999 0  242588.100699 575737.366175 0  243149.324833 574898.583978 0  243695.278626 573919.517981 0  244268.494418 573724.8454239999 0  244995.134063 573930.2767810001 0  245417.314363 573391.601898 0  243450.599125 571859.479773 0  245776.797908 572599.8353060001 0  246779.639852 572973.285167 0  248034.741935 573186.082054 0  249413.10651 573162.3205520001 0  250496.922226 573271.1521899999 0  251613.105126 573237.3551319999 0  252421.824577 572846.032906 0  253256.245022 572580.4733130001 0  253739.471933 571960.9547369999 0  254174.511864 572149.8346569999 0  254484.944333 571684.194807 0  254384.108649 570891.346712 0  254344.002752 570218.26407 0  255025.609604 570829.0294979999 0  255715.005913 570489.264586 0  256218.846343 570774.828355 0  256834.349083 570508.5908 0  257390.092515 570014.308325 0  257624.431042 568493.478911 0  259355.811717 569380.021819 0  260033.372814 569617.066669 0  262679.741751 570320.699974 0  263289.115756 569524.817815 0  263463.114338 570512.301061 0  264638.198419 570687.3443539999 0  265058.220065 571334.378467 0  265447.561421 572077.90485 0  265488.125257 573137.3446020001 0  265131.937715 573963.293593 0  265432.389648 575093.068786 0  265638.122314 576338.029955 0  265750.630817 577371.8281319999 0  265738.570663 578561.9098850001 0  265875.630866 579139.630549 0  266213.129247 579862.311842 0  266563.130472 581112.314509 0  266238.135356 582362.310259 0  265938.12863 583612.320897 0  265738.131342 584762.3210189999 0  266875.638633 585365.358768 0  264018.7239399826 593650.4646671159 0  262236.3944351029 595831.1252656333 0  241846.246678 605206.1436625 0  240200.622106 608424.8903290001 0  240943.4862974102 610939.7757535663 0  236550.6094 599787.3577085 0  238528.1212051503 608102.9081793013 0  244413.4891967989 572609.5960859474 0  236382.0474488751 598808.3067022427 0  235369.601910944 600933.5380148316 0  235413.099011 591037.3503485 0  235446.2251831186 590266.6553871984 0  240475.5921005 578037.3333535 0  240413.173949154 577324.4280286073 0  240574.037899 606283.0066440001 0  263857.9179445 593618.2891454998 0  264153.4303974913 593343.916675058 0  242042.1833925 604946.7714812499 0  241650.3099635 605465.51584375 0  244613.6985165 572229.6575395 0  236631.8579695 598822.2989335 0  235140.029068 600860.444221 0  241767.7287175 604874.0596705 0  242140.15174975 604817.0853906251 0  234781.8558075 600573.1668855001 0  242091.167571125 604881.9284359375 0  234519.3558565 600373.162719 0  254604.8337712102 583989.0014118921 0  250699.5846056537 594617.3297041012 0  250540.4796469513 602258.2940568649 0  248483.7490186612 580334.7345534252 0  258549.2190328319 577893.951823392 0  257067.0067473103 590016.5327808241 0  243285.0921999099 596333.923437875 0  248333.1386145258 589098.0389905117 0  256142.8445072741 595883.3911551933 0  260245.1368072523 583315.2785712298 0  253472.3380211276 578932.2908163272 0  246432.3347504817 599884.5019511909 0  261555.9240922556 588041.186709004 0  247293.1100123104 605823.8307887657 0  246458.2798550911 593168.8646574575 0  252840.0183145193 588226.5564648228 0  249828.2874404451 584740.7888937403 0  255409.5660975206 600458.8956828594 0  260819.9733392385 574219.403683011 0  252584.2262054711 605722.6603825617 0  254049.8830611471 592547.4852571967 0  250015.4356193061 598425.2225922942 0  245872.072249477 577604.9761853142 0  262002.1583249522 579753.4663046852 0  257732.6630933878 586227.970805314 0  250242.5556457866 577017.3316409125 0  244921.6453001869 581816.6358421432 0  256520.3890639471 580904.824006648 0  240779.0970645865 599524.6679555867 0  257100.1829219198 574459.5922545703 0  239912.2630002034 595231.1172704464 0  244703.0875078634 590068.6945953515 0  242549.5490268674 592874.3693043783 0  251586.0465921376 581796.2215047925 0  246643.189997516 596527.447801719 0  251049.7658069622 591057.6752245198 0  253014.5731561695 596998.6601086652 0  238680.2197353724 584542.2309791476 0  259715.365803504 591937.1938619445 0  254097.157218761 575731.4494927844 0  246806.6408589328 586139.0877599345 0  246136.1179750556 602959.471719323 0  253520.7033332401 602835.180253843 0  244125.4295793909 607538.9817227355 0  252546.8895354472 599881.3279113505 0  258289.0983523553 600397.640191779 0  247518.7952199645 583037.3718217331 0  263140.3959879661 582529.2228421422 0  262894.8586894067 585442.3590432997 0  256968.6320599076 593040.7691844478 0  243573.0187527719 600218.2795730785 0  258888.5766127351 595139.7745218446 0  262588.7569809347 576734.8569237856 0  259318.4257992262 580601.2540325444 0  249963.3812725965 607065.7205847671 0  257494.5307999607 583482.5893534871 0  258906.4757205145 572278.8089438241 0  237751.446593475 587300.5805003279 0  255142.4708720699 604956.7580261135 0  258485.4978753244 597756.9250383095 0  255516.7820591553 587791.39641967 0  239758.4692108706 601926.8203218657 0  255873.0092222999 577739.5085867504
[...]
<PointData  Scalars="f_32-1"> 
<DataArray  type="Float64"  Name="f_32-1"  format="ascii">4.1293260958685742e+01  4.2621289149772167e+01  4.4669097631542364e+01  4.6524435227357245e+01  4.7875177534600866e+01  4.9928701849513722e+01  5.0606020611842176e+01  5.1006936315807579e+01  5.1073256874534621e+01  5.1848581197624682e+01  5.2378317233047248e+01  5.2135469996404353e+01  5.2210211988807110e+01  5.4630796423798053e+01  5.6033609623385388e+01  5.7210296660450133e+01  5.8671091795986470e+01  6.0118559536766611e+01  6.0025058124383378e+01  6.0517592044868003e+01  6.2784687857472314e+01  6.4542900410234736e+01  6.6490037965688387e+01  6.7511008604948060e+01  6.8067348971486396e+01  6.9415747989527929e+01  6.9804565968597274e+01  7.0573258250558055e+01  7.1974935822609083e+01  7.2788821655982645e+01  7.2962142672598475e+01  7.3367556875652213e+01  7.4432783613521394e+01  7.5338276631335646e+01  7.5511749602819933e+01  7.6429224224559789e+01  7.7709384690432145e+01  7.9070117875039841e+01  8.0054280738725367e+01  8.0862801051318584e+01  8.2078078666092495e+01  8.3218913837362265e+01  8.4232903707509081e+01  8.5114028654714971e+01  8.5892882240217773e+01  8.6055524907933290e+01  8.6470566110053284e+01  8.7012092943168739e+01  8.7449954280096932e+01  8.7657926309735885e+01  8.7703037833429491e+01  8.7745923590694730e+01  8.7724192599421229e+01  8.7808424581939150e+01  8.8037146862689497e+01  8.8018926243276240e+01  8.8021853039537930e+01  8.8118861506013147e+01  8.7866674377814988e+01  8.7114342244239637e+01  8.6285262257503305e+01  8.5604840476945228e+01  8.4525915832395427e+01  8.2772995492172598e+01  8.2567536904640519e+01  8.4761374648740102e+01  8.5326464688788462e+01  8.5454872139307000e+01  8.5610836523510187e+01  8.5829644975163319e+01  8.6116686115856965e+01  8.7181165447653044e+01  8.7601352325050215e+01  8.7860389162995929e+01  8.7921331926488065e+01  8.7633019564344295e+01  8.7007518768571103e+01  8.6402487090247874e+01  8.5788858690200058e+01  8.6190632197002017e+01  8.6508376048663777e+01  8.6937074480510077e+01  8.7055493514307670e+01  8.7051191729783582e+01  8.7100926746562550e+01  8.7076887830749484e+01  8.6795105260913132e+01  8.5895316546445542e+01  8.4400753618391008e+01  8.4239749368708459e+01  8.5740370500047462e+01  8.6388544745463932e+01  8.6581794810418771e+01  8.6437605883619909e+01  8.6531171198806589e+01  8.6376832915637692e+01  8.6368600698231020e+01  8.6171219770138137e+01  8.6087449971636545e+01  8.5794601102787354e+01  8.3505598813745152e+01  8.1079199456739445e+01  7.7942631982129271e+01  7.4936973260276531e+01  7.2057878196656688e+01  6.9706393114237585e+01  6.7912343090121169e+01  6.6343415662226462e+01  6.4658429842757172e+01  6.3159864557838006e+01  6.1245171362770243e+01  6.0546545448436220e+01  6.0940959853292910e+01  6.3919659463432716e+01  6.6205750626927767e+01  6.7117567347154647e+01  6.8062126684169272e+01  6.9748985298050968e+01  7.2122287926086628e+01  7.5017674953346329e+01  7.5878859815601587e+01  7.5888555527633471e+01  7.4598699391757535e+01  7.2176395777528342e+01  7.1758313481702174e+01  7.3927246086862354e+01  7.5419992400534170e+01  7.5942083249799282e+01  7.5947957075163885e+01  7.4338969913644590e+01  6.9535757382602526e+01  6.8816583860911464e+01  6.7764076413260540e+01  6.7194233059527321e+01  6.6282885405105404e+01  6.5127439010215440e+01  6.3746084532562577e+01  6.2426528399619940e+01  6.1232167609653310e+01  6.0717936664287720e+01  6.0416985972366597e+01  6.0290295180439713e+01  5.9923947620878913e+01  5.9817046189048341e+01  5.9829813976148500e+01  6.0304287717067190e+01  6.0980342390211185e+01  6.1088361255627582e+01  5.9914657830332175e+01  5.8645135562606036e+01  5.7448916490275820e+01  5.6712505203978814e+01  5.6390257782686454e+01  5.4877254073003655e+01  5.3492439396617328e+01  5.2231148370641939e+01  5.1839936875224197e+01  5.0663750477718587e+01  4.9190677216159912e+01  4.9342887964812959e+01  4.8754016699714100e+01  4.7916672299928081e+01  4.6009866612133699e+01  4.3799918185058260e+01  4.2400584516110143e+01  4.0800923170351034e+01  3.9464199518308000e+01  3.8178401838043513e+01  3.7448192360004384e+01  3.6986303863793218e+01  3.5955114141908702e+01  3.5336427555767479e+01  3.5264491851783326e+01  3.5151641169745872e+01  3.4602396219382022e+01  3.4105488347521828e+01  3.3005164927386787e+01  3.2136629084493734e+01  3.2679648334126320e+01  3.1179774612953892e+01  3.1169632357455328e+01  3.3046369079390757e+01  3.3138389468765531e+01  3.3256916501072368e+01  3.2895417732057616e+01  3.2414139331738077e+01  3.2006499249620155e+01  3.2087490546602282e+01  3.2623229761592988e+01  3.3395032742505229e+01  3.4178511912135747e+01  3.4970745641098901e+01  3.5993678331296870e+01  3.6442074461799926e+01  3.6986244098039172e+01  3.8344293030353612e+01  4.0278878059659860e+01  4.1212714743221163e+01  4.0816639950313139e+01  4.0751560427529327e+01  5.2314943920218489e+01  6.0262902266092105e+01  8.5116875026796421e+01  8.7553218349275170e+01  8.8007812855132173e+01  8.5178922345395875e+01  8.7836654386220758e+01  4.9144812711146365e+01  8.5001433781006753e+01  8.6544809261481362e+01  7.3392132023130429e+01  7.2579465199061175e+01  5.9995335701536710e+01  5.9839168386268618e+01  8.6719717967373612e+01  5.2315149697759672e+01  5.2163571278367179e+01  8.4834700430807317e+01  8.5378797179060484e+01  4.9143902653078634e+01  8.4087430576194706e+01  8.6544873992681389e+01  8.5481837107751886e+01  8.4684633505160406e+01  8.6499299564251118e+01  8.4760710535214855e+01  8.6498730536497703e+01  4.9228145810295850e+01  6.6818836144083775e+01  7.5782620051786381e+01  5.1643034883775485e+01  3.6572757832704241e+01  5.3191016964682795e+01  7.5098144288792682e+01  6.1288421590670424e+01  6.4373702191004838e+01  4.2027457243530925e+01  4.3182391022731146e+01  7.5433927588245552e+01  4.6587396679445064e+01  8.2020087248818683e+01  6.7606259405991949e+01  5.4566776669413741e+01  5.6555102310209975e+01  6.8938276049370984e+01  3.3697018740506138e+01  7.7993957332199614e+01  6.1635895032343392e+01  7.0721521049275182e+01  5.2185282052481462e+01  3.6848863785599974e+01  4.7086781637599238e+01  4.5179417253879862e+01  5.7605894521847588e+01  4.2951097894445113e+01  8.1212727271258984e+01  3.6632992483283665e+01  7.5712861453915778e+01  6.4766414168908611e+01  6.9992679107022127e+01  5.0646554259819595e+01  7.2532254414056482e+01  6.0564291867717060e+01  6.7902065136716800e+01  6.4844667316834744e+01  5.5731450941209495e+01  3.8638932798392950e+01  5.9716913082380216e+01  7.9745984803557434e+01  7.4537256559182055e+01  8.5509848697857734e+01  7.1184708220238505e+01  6.9523133335210389e+01  5.6287007306018786e+01  3.9512636101126333e+01  4.1647477603425919e+01  5.9485546117020043e+01  7.9077762448517831e+01  6.0956595438714956e+01  3.5140350698294846e+01  3.9121134083153102e+01  8.1181622922163783e+01  4.5157490956258563e+01  3.2110006386707234e+01  6.7724652586529189e+01  7.5851825846572154e+01  6.5279552892175687e+01  4.9756695715612210e+01  8.5234051676177515e+01  3.8543342822570416e+01  5.0874658377526949e+01  5.9956528133381468e+01  6.5394474638250443e+01  5.6411094530957200e+01  4.7081107305095081e+01  4.3708691077492595e+01  5.6487598767655520e+01  4.8011403883021295e+01  4.7854801776738107e+01  4.4593494017651949e+01  4.9423665105531448e+01  8.4563442706554881e+01  7.8513451240843253e+01  5.2993950439697834e+01  8.3146548006618730e+01  7.5797212109966992e+01  7.3825360108235088e+01  8.0528328431615890e+01  6.2598502339819802e+01  5.9102579168408774e+01  6.6330011150245539e+01  7.2348293890401919e+01  5.7980706083186867e+01  7.8255982971162823e+01  5.0808024071400226e+01  6.5577179574026744e+01  3.2548199577042197e+01  4.9474573277630164e+01  6.8995646645385634e+01  7.7455173353492398e+01  6.3956152945406366e+01  7.0952828301295867e+01  6.2293513946264845e+01  7.1585937461153563e+01  3.5764145462549550e+01  5.3426389563435805e+01  5.3338248230148707e+01  7.9784948209310230e+01  6.7427594213850853e+01  3.7488649197250858e+01  7.9343820356800663e+01  6.3607812823114372e+01  8.4334540792857283e+01  3.3388166272467593e+01  8.4799261460046054e+01  8.4729469950976110e+01  5.5313021778431519e+01  5.0971809813191072e+01  8.4800556175917563e+01  8.5803699096755651e+01  8.2960661354404351e+01  8.5170564869786674e+01  7.1493573997693716e+01  3.6101415084587835e+01  8.0814776062601368e+01  7.5842442585415057e+01  5.6179524595982045e+01  5.0547890614945857e+01  4.7255895055959144e+01  8.5526473769405300e+01  8.4724213341427216e+01  5.8424082597799135e+01  8.5889957698462254e+01  8.3735055796523852e+01  8.4236259391664092e+01  8.5961926043058156e+01  5.9810434757228656e+01  4.9015894249785042e+01  7.1146877659357884e+01  3.4160691224327067e+01  4.9059379402981428e+01  3.6652016005580990e+01  6.9163599580313502e+01  8.7316740206321114e+01  6.6700256707757291e+01  7.2794891035450121e+01  8.3446616526015958e+01  6.0079991374504608e+01  3.0965003119345528e+01  7.2032914481764792e+01  3.9494209238676881e+01  5.2326440051698484e+01  8.4927256066703876e+01  8.2944518440741447e+01  6.2017492914267500e+01  8.7322300278365930e+01  4.3939367322398816e+01  8.5472620972579932e+01  6.3887500585336930e+01  3.2512046717613217e+01  3.6265528697180365e+01  3.7339556738711671e+01  7.2557414155784741e+01  8.1847088511164458e+01  8.1146792101980935e+01  6.8677435632262487e+01  8.5256746184644683e+01  5.9995941702096822e+01  4.8986318235627564e+01  4.8976585483106895e+01  3.2400644237437874e+01  8.4798469258895423e+01  8.4978157398145541e+01  8.5049622280847302e+01  7.5573379670347236e+01  8.1580369679752494e+01  8.5132761713778933e+01  8.3567869539259874e+01  6.6917825741846315e+01  8.7953923555291681e+01  8.7897971390407250e+01  6.1148085187955488e+01  3.5075175101749650e+01  6.0947107322854556e+01  8.2075733503488209e+01  5.5971476223671424e+01  6.4640824077591816e+01  8.7526739983135542e+01  6.1802663909906379e+01  7.3409961421871216e+01  4.0903320121813643e+01  5.6443463890600242e+01  5.5666037531403653e+01  5.7056371058299490e+01  8.5934984062548722e+01  5.0383489672983295e+01  5.1281632422070693e+01  4.9400556634582003e+01  5.1151184312627436e+01  4.7401721675290794e+01  3.2873842094904525e+01  3.1273746257226886e+01  5.2285406726660412e+01  5.5025118620093707e+01  7.5604937045779266e+01  7.5519733294910637e+01  8.7746829663730452e+01  6.6975356408802043e+01  6.4884885989748753e+01  6.0771243483644135e+01  6.0292718348179761e+01  6.0418103573963862e+01  6.0610091905625175e+01  6.0307083545787918e+01  6.0328234466547109e+01  6.2276109128599501e+01  6.0461759405452490e+01  6.1091478328942131e+01  6.4076638552413343e+01  6.2436900397214259e+01  5.8651072929904707e+01  6.0163049537457994e+01  4.4804361692872568e+01  4.6543306242701121e+01  4.4704919776675560e+01  4.3100890353824020e+01  4.3670270290951692e+01  4.1648598352220468e+01  4.2965332879145734e+01  4.2269548672195043e+01  3.8922415074360075e+01  3.7731554045362088e+01  3.4045570945817431e+01  3.4558400617619704e+01  3.4500974286390296e+01  3.5481192760612672e+01  3.4930237316476429e+01  3.6229811406122820e+01  3.6270576694341102e+01  3.5467328985157287e+01  3.6712916298522714e+01  3.6452598522342221e+01  3.7218148651201240e+01  3.6671322074667273e+01  3.7923129352155001e+01  4.0369743232191027e+01  3.8889295299717688e+01  4.7256026452683422e+01  4.6511299586445581e+01  4.6936313024140439e+01  5.0231523148703111e+01  6.7965988799488471e+01  6.7240015735968214e+01  6.6290418996058023e+01  6.7761788611133440e+01  7.3858715777219601e+01  7.7197981969199191e+01  7.4916192341878102e+01  7.6890001299715436e+01  5.4227878282778569e+01  4.9961926847072988e+01  5.0342181488121192e+01  5.2362861571735564e+01  3.6991105700905734e+01  3.8673053741165717e+01  3.6749286767602136e+01  3.7556951966317342e+01  3.7024199460121842e+01  3.6358025377061196e+01  5.4797367024344624e+01  5.6536731593936629e+01  5.1226120552770567e+01  5.4389003276025939e+01  5.1173952285238862e+01  7.5487226980407783e+01  7.2707946650783924e+01  6.0565963975058665e+01  6.0393835216858420e+01  6.2791402985441842e+01  5.9757528943357038e+01  6.2619393903019095e+01  6.1374861042758234e+01  6.3265539401586949e+01  6.6260298374207736e+01  6.5100775936674339e+01  3.8574411971453472e+01  4.0075405778209344e+01  4.1806822695327519e+01  4.0701658487650711e+01  4.3590688856542535e+01  4.3001273413726828e+01  4.7338306547875952e+01  4.0227563828525980e+01  4.0711717108890667e+01  4.5272405263915275e+01  4.5668145794110742e+01  7.2901973262794272e+01  7.7390327540659143e+01  7.4210152696332685e+01  7.8170304115805990e+01  8.0991187836929186e+01  7.0356555546380420e+01  6.5693372774871776e+01  6.9182399800626996e+01  6.7345562402351334e+01  5.1868241180156438e+01  5.5497566640160969e+01  5.6239767117587107e+01  5.2032016574396387e+01  7.1959816349808321e+01  6.9292435305297658e+01  6.9386620176918910e+01  6.6944273087217496e+01  3.5063817337371979e+01  3.4178213954486473e+01  6.1508576574333510e+01  6.0425932879202577e+01  5.9275981186381870e+01  7.1352231932284553e+01  6.9124453085209581e+01  7.2584025897447958e+01  6.9273207695841577e+01  5.4211267977962798e+01  5.0298460755694073e+01  5.0687350246415711e+01  5.2400675507814178e+01  5.0837614437364998e+01  5.2548682950838213e+01  3.7556004532730782e+01  3.6467234579407396e+01  3.7587032242707572e+01  3.6520004095859960e+01  3.7000013375344324e+01  3.6890759106670664e+01  4.6089043383718028e+01  4.8026240783079636e+01  4.7987161298482938e+01  4.8041917614421727e+01  4.1031147630581778e+01  4.6426906375924389e+01  4.6445433961157420e+01  4.7580114078931388e+01  4.1820368904691719e+01  4.4444609850898459e+01  5.7237568665772180e+01  5.8950825838381711e+01  5.6738580669404548e+01  5.5982212226560684e+01  4.0844483107721075e+01  4.4380925282971702e+01  4.0188078804565052e+01  4.5038555400479787e+01  3.7672874770667434e+01  3.4799263841977464e+01  3.7580542781701759e+01  3.6199558482309683e+01  3.6361258713609857e+01  3.5508862939521372e+01  3.7046971946846561e+01  6.4043146171555733e+01  6.3423657800937988e+01  6.5998283835977801e+01  6.6025755265355784e+01  7.0487015168778001e+01  4.8924560416388246e+01  4.9391971431178618e+01  7.0722855668209561e+01  6.2876669328389610e+01  5.9512702871436261e+01  5.8822108890202927e+01  6.2120965699660282e+01  6.9191120333089458e+01  6.7180323605190694e+01  6.3633667076499982e+01  6.3374623019578443e+01  5.7523849364434604e+01  5.2687079569855953e+01  3.8942661799254360e+01  3.8773592103422139e+01  3.7892852904753056e+01  5.9196714610174332e+01  6.0905984898019867e+01  7.6405813048184953e+01  7.8876000057047079e+01  7.2808926125796802e+01  7.6575905899647182e+01  7.3196172889285293e+01  7.3279070671825366e+01  6.7951612714262453e+01  6.7432430473723798e+01  5.5396578343512815e+01  3.8419898913660539e+01  5.7738750238493331e+01  5.8961008251690878e+01  3.5293274553275239e+01  3.6159946789535361e+01  3.5174860536867349e+01  4.2460868623411749e+01  4.4935157767255113e+01  5.2823443757021678e+01  4.9155901012933676e+01  4.9796286552819581e+01  5.0520689963360255e+01  5.9670528954584597e+01  5.9934868500041787e+01  6.0543944245034233e+01  6.0638603228161450e+01  6.4738033183572696e+01  6.4331820008149322e+01  5.4795861328930670e+01  5.0181508857537501e+01  4.8664721498326109e+01  5.0773969042347872e+01  4.8699013474324715e+01  4.5784377806563512e+01  4.7022763279499571e+01  5.5563455621175144e+01  5.2240601296456795e+01  7.5938105355926638e+01  5.4258284467644991e+01  5.1161536554797060e+01  6.2673050416869941e+01  6.5453393256901094e+01  6.9055352510586701e+01  6.7145893380278395e+01  3.7063697477936557e+01  3.4146535495025098e+01  3.6821358156004166e+01  5.9935167520777888e+01  3.5994903671643101e+01  6.0649522650735250e+01  4.1764239359193823e+01  3.8175011181868072e+01  6.1425570045575455e+01  4.8609612272166686e+01  6.7865439239100596e+01  3.6786426226853699e+01  3.7213974073827181e+01  3.6521507327289946e+01  3.6695840433788810e+01  3.6458524372317996e+01  6.1976800239911995e+01  4.3312398843930353e+01  4.5327702931632274e+01  4.4400602467096959e+01  7.5664139979140245e+01  5.8329553370686561e+01  5.3196063916068248e+01  5.3161585629860618e+01  5.4102645783441240e+01  3.4945104079749036e+01  6.9112115774037477e+01  6.9717805776541312e+01  3.7342900871707847e+01  3.7028094560303565e+01  4.6916915983788442e+01  4.7352434233206900e+01  4.2987220037979689e+01  5.6789167161204020e+01  6.0296031464613463e+01  6.1626604860935885e+01  5.9418590439452686e+01  6.2371892239468764e+01  3.9571498384087526e+01  3.8107280138188585e+01  3.8628401372782818e+01  3.8270385683533554e+01  6.9497134184093952e+01  3.8302793067979565e+01  3.9919958852767962e+01  4.0763313907182869e+01  5.0388213705651786e+01  5.0723179636907311e+01  5.1120761448361918e+01  4.9279258727690866e+01  3.9605951577156439e+01  3.7882009871456155e+01  3.8817768773084737e+01  4.9327439376537392e+01  7.3234921628939333e+01  7.3874214090534949e+01  7.4898943325697388e+01  6.2287465076429342e+01  6.6897948253956343e+01  5.2399752975607136e+01  4.9871955819758604e+01  4.9058922884189052e+01  5.0353427546402592e+01  6.4600556420436433e+01  6.1659994558036949e+01  6.2375532684969301e+01  3.6405864309787454e+01  3.6152305350651318e+01  3.5951895823603053e+01  5.2751868718361848e+01  5.4727952562828783e+01  5.4359104113144944e+01  5.2115991205996139e+01  6.6433124839533676e+01  3.6123317073139631e+01  3.6444334611837419e+01  3.6351697502102311e+01  6.0466230444755965e+01  6.0221871538461031e+01  6.0286763798713658e+01  4.2947689278710008e+01  4.4165998022536535e+01  4.4819600360686835e+01  3.7443745309186589e+01  3.5274430104011039e+01  3.5641883751294039e+01  6.1352183643607077e+01  6.2799418565366075e+01  6.1972787958668569e+01  6.1160770231005984e+01  6.1173389428295671e+01  6.1573270722850999e+01  6.0830867874271512e+01  4.5150546848859747e+01  3.5724453604036832e+01  4.7647028620725123e+01  6.8512351061121478e+01  5.1284621251003045e+01  5.0728987893639648e+01  3.6616416288698922e+01  3.7595834890658658e+01  3.7713253694654234e+01  3.8924737443378930e+01  3.8238660832460596e+01  3.7230029627215742e+01  5.1065149093318425e+01  5.0039227664815414e+01  5.0106506068213683e+01  6.1440690186480417e+01  6.1996868529220208e+01  3.7851859452512549e+01  3.8656987411251187e+01  4.1560747773508787e+01  4.2056480070755875e+01  4.6561256080904919e+01  4.0352430012981202e+01  4.0417915649531729e+01  3.9647521462209362e+01  4.7689466365754519e+01  7.5156074490472250e+01  5.2279301274405590e+01  5.4160085121446492e+01  5.3086787666261962e+01  6.7785729299323705e+01  6.8447781142904844e+01  6.7150635155063512e+01  5.1482291216680544e+01  5.3527761141371862e+01  5.1679221297128443e+01  4.5091709228166124e+01  5.5705451667104455e+01  5.5241353597702989e+01  3.8278906425838258e+01  3.7749363259913537e+01  6.4978444891802553e+01  6.4674132819510319e+01  6.5680011052463129e+01  3.8265688949428572e+01  3.6095682444007721e+01  </DataArray> 
</PointData> 
</Piece>
</UnstructuredGrid>
</VTKFile>