<?xml version="1.0"?>
<VTKFile type="UnstructuredGrid"  version="0.1"  >
<UnstructuredGrid>
<Piece  NumberOfPoints="784" NumberOfCells="1320">
<Points>
<DataArray  type="Float64"  NumberOfComponents="3"  format="ascii">266913.131276 586512.314988 0  266738.13716 587762.325998 0  266363.132677 589012.328643 0  266175.641078 590169.601714 0  265666.575631 591040.7699119999 0  264875.64001 591687.766419 0  264900.636161 591845.049083 0  266088.14152 592012.3229499999 0  265561.959259 592661.17101 0  264288.136855 593037.368683 0  263865.194033 593999.8486949999 0  263850.641856 593236.729596 0  263625.634872 592756.525286 0  262689.574249 593299.848918 0  262475.636737 594003.0907310001 0  261934.554452 594340.929792 0  261725.631329 594932.094409 0  261729.256443 595728.498809 0  262138.136044 595012.330523 0  262288.141035 596262.333669 0  261488.994028 597511.480605 0  261234.15567 598316.338928 0  260815.635063 599014.863821 0  261400.643658 599389.7367680001 0  261322.963374 600022.185065 0  261119.455248 600931.061306 0  261607.436504 601293.0629359999 0  260807.446929 602089.899812 0  260025.642878 602988.868697 0  259613.135827 603937.3854499999 0  259050.643123 604100.987861 0  258411.880065 603988.6335979999 0  257764.357469 604449.872569 0  257971.239668 605320.429125 0  258041.396867 605740.635381 0  257188.143339 606987.394312 0  256038.141198 608112.3554550001 0  254788.141633 609087.4026939999 0  253588.140656 609812.362881 0  252338.135706 609737.4048949999 0  251088.138116 609787.404055 0  249963.12851 610287.399466 0  248613.130524 610462.365857 0  247363.132198 610687.407659 0  246113.130532 610837.411551 0  245832.347438 610918.209918 0  245016.946433 610958.5639439999 0  244313.129646 610762.372259 0  244400.622144 611378.093316 0  243939.669208 612460.8930899999 0  242960.649733 611984.892792 0  242170.381438 611919.647351 0  241888.122919 611112.375656 0  241393.380757 610467.6456149999 0  240594.157528 611306.369822 0  240525.621947 610804.648112 0  240363.123632 610512.3745050001 0  239113.123247 610262.374278 0  239813.12126 609037.412459 0  240588.122952 607812.368199 0  241013.119545 606625.9534560001 0  241454.373249 605724.888025 0  242238.120107 604687.3993 0  243088.121248 603462.362766 0  242860.319451 603007.3932640001 0  241563.116617 603812.361344 0  241778.400913 604327.642217 0  242059.837234 604824.879102 0  241475.620201 604923.2402390001 0  241462.182234 605449.881372 0  240906.219606 605674.888222 0  240241.856192 606891.125066 0  239891.734044 607841.012479 0  239048.653431 608724.889805 0  238118.054545 608974.895967 0  238888.111029 607337.406468 0  239738.119992 606212.362729 0  240288.12044 605687.4075229999 0  240380.212307 604729.521696 0  239347.309632 604603.204501 0  238888.112036 604387.408787 0  237913.11173 604687.401386 0  236784.172023 604499.882783 0  236883.408793 603717.08334 0  236154.933927 603595.565605 0  235688.103943 602912.369264 0  235763.108033 601662.366516 0  236363.110805 600412.35884 0  236738.107995 599162.356577 0  236525.607944 598482.2412899999 0  236138.109208 599362.357613 0  235725.063048 600325.4466510001 0  235091.948926 601408.5220979999 0  235188.10921 600312.366344 0  234375.602405 600833.9674270001 0  234663.109308 599912.358011 0  234138.105122 600062.365644 0  233955.307245 599029.561063 0  233338.103791 598387.401556 0  233988.09795 597862.356384 0  235138.101489 596637.3947750001 0  235563.1039 595387.392428 0  236513.103639 594212.356312 0  237163.10684 592987.3929869999 0  238313.103031 591862.3515540001 0  239513.107028 590812.3512640001 0  240638.102135 589787.387271 0  241463.109549 588587.378486 0  242294.489816 587443.735215 0  242913.101099 586512.341804 0  243544.066915 585474.859604 0  243040.448415 585184.975583 0  242438.10214 585337.38015 0  241313.102353 586562.339499 0  240538.107104 587787.382449 0  240114.641085 588588.939407 0  239388.100256 589437.382238 0  238188.104456 590512.346358 0  236938.100507 591362.349798 0  235813.10453 592537.396388 0  234864.502938 593178.7753880001 0  234463.097651 592862.357267 0  235113.0965 591662.3545979999 0  235713.101522 590412.346099 0  235777.688431 589976.7582779999 0  234943.583145 590706.265132 0  234462.482256 591490.2841159999 0  233801.497784 592112.940187 0  233388.099101 591787.394208 0  234013.093099 590437.393065 0  234776.217248 587148.7548100001 0  235163.093726 586562.3486189999 0  235313.098918 585483.229012 0  235250.59732 584662.298153 0  235588.093896 583337.379493 0  236329.432041 582199.858992 0  237188.096234 581462.3349939999 0  237463.088521 580212.335511 0  238350.592558 579057.652616 0  238591.415797 578574.847681 0  238313.094106 577612.328905 0  239229.696732 577695.769664 0  240195.161018 577513.008613 0  240614.996733 577149.8518770001 0  240663.091715 577412.332622 0  240288.092486 578662.334085 0  239942.357258 579508.095811 0  240438.100019 580212.3334220001 0  241338.095553 580387.375355 0  241238.099828 579137.369157 0  241788.097003 577887.370889 0  241983.554649 577241.9220939999 0  242054.178239 576927.8105029999 0  242588.100699 575737.366175 0  243149.324833 574898.583978 0  243695.278626 573919.517981 0  244268.494418 573724.8454239999 0  244995.134063 573930.2767810001 0  245417.314363 573391.601898 0  243450.599125 571859.479773 0  245776.797908 572599.8353060001 0  246779.639852 572973.285167 0  248034.741935 573186.082054 0  249413.10651 573162.3205520001 0  250496.922226 573271.1521899999 0  251613.105126 573237.3551319999 0  252421.824577 572846.032906 0  253256.245022 572580.4733130001 0  253739.471933 571960.9547369999 0  254174.511864 572149.8346569999 0  254484.944333 571684.194807 0  254384.108649 570891.346712 0  254344.002752 570218.26407 0  255025.609604 570829.0294979999 0  255715.005913 570489.264586 0  256218.846343 570774.828355 0  256834.349083 570508.5908 0  257390.092515 570014.308325 0  257624.431042 568493.478911 0  259355.811717 569380.021819 0  260033.372814 569617.066669 0  262679.741751 570320.699974 0  263289.115756 569524.817815 0  263463.114338 570512.301061 0  264638.198419 570687.3443539999 0  265058.220065 571334.378467 0  265447.561421 572077.90485 0  265488.125257 573137.3446020001 0  265131.937715 573963.293593 0  265432.389648 575093.068786 0  265638.122314 576338.029955 0  265750.630817 577371.8281319999 0  265738.570663 578561.9098850001 0  265875.630866 579139.630549 0  266213.129247 579862.311842 0  266563.130472 581112.314509 0  266238.135356 582362.310259 0  265938.12863 583612.320897 0  265738.131342 584762.3210189999 0  266875.638633 585365.358768 0  264018.7239399826 593650.4646671159 0  262236.3944351029 595831.1252656333 0  241846.246678 605206.1436625 0  240200.622106 608424.8903290001 0  240943.4862974102 610939.7757535663 0  236550.6094 599787.3577085 0  238528.1212051503 608102.9081793013 0  244413.4891967989 572609.5960859474 0  236382.0474488751 598808.3067022427 0  235369.601910944 600933.5380148316 0  235413.099011 591037.3503485 0  235446.2251831186 590266.6553871984 0  240475.5921005 578037.3333535 0  240413.173949154 577324.4280286073 0  240574.037899 606283.0066440001 0  263857.9179445 593618.2891454998 0  264153.4303974913 593343.916675058 0  242042.1833925 604946.7714812499 0  241650.3099635 605465.51584375 0  244613.6985165 572229.6575395 0  236631.8579695 598822.2989335 0  235140.029068 600860.444221 0  241767.7287175 604874.0596705 0  242140.15174975 604817.0853906251 0  234781.8558075 600573.1668855001 0  242091.167571125 604881.9284359375 0  234519.3558565 600373.162719 0  254604.8337712102 583989.0014118921 0  250699.5846056537 594617.3297041012 0  250540.4796469513 602258.2940568649 0  248483.7490186612 580334.7345534252 0  258549.2190328319 577893.951823392 0  257067.0067473103 590016.5327808241 0  243285.0921999099 596333.923437875 0  248333.1386145258 589098.0389905117 0  256142.8445072741 595883.3911551933 0  260245.1368072523 583315.2785712298 0  253472.3380211276 578932.2908163272 0  246432.3347504817 599884.5019511909 0  261555.9240922556 588041.186709004 0  247293.1100123104 605823.8307887657 0  246458.2798550911 593168.8646574575 0  252840.0183145193 588226.5564648228 0  249828.2874404451 584740.7888937403 0  255409.5660975206 600458.8956828594 0  260819.9733392385 574219.403683011 0  252584.2262054711 605722.6603825617 0  254049.8830611471 592547.4852571967 0  250015.4356193061 598425.2225922942 0  245872.072249477 577604.9761853142 0  262002.1583249522 579753.4663046852 0  257732.6630933878 586227.970805314 0  250242.5556457866 577017.3316409125 0  244921.6453001869 581816.6358421432 0  256520.3890639471 580904.824006648 0  240779.0970645865 599524.6679555867 0  257100.1829219198 574459.5922545703 0  239912.2630002034 595231.1172704464 0  244703.0875078634 590068.6945953515 0  242549.5490268674 592874.3693043783 0  251586.0465921376 581796.2215047925 0  246643.189997516 596527.447801719 0  251049.7658069622 591057.6752245198 0  253014.5731561695 596998.6601086652 0  238680.2197353724 584542.2309791476 0  259715.365803504 591937.1938619445 0  254097.157218761 575731.4494927844 0  246806.6408589328 586139.0877599345 0  246136.1179750556 602959.471719323 0  253520.7033332401 602835.180253843 0  244125.4295793909 607538.9817227355 0  252546.8895354472 599881.3279113505 0  258289.0983523553 600397.640191779 0  247518.7952199645 583037.3718217331 0  263140.3959879661 582529.2228421422 0  262894.8586894067 585442.3590432997 0  256968.6320599076 593040.7691844478 0  243573.0187527719 600218.2795730785 0  258888.5766127351 595139.7745218446 0  262588.7569809347 576734.8569237856 0  259318.4257992262 580601.2540325444 0  249963.3812725965 607065.7205847671 0  257494.5307999607 583482.5893534871 0  258906.4757205145 572278.8089438241 0  237751.446593475 587300.5805003279 0  255142.4708720699 604956.7580261135 0  258485.4978753244 597756.9250383095 0  255516.7820591553 587791.39641967 0  239758.4692108706 601926.8203218657 0  255873.0092222999 577739.5085867504
[...]
<PointData  Scalars="f_32-1"> 
<DataArray  type="Float64"  Name="f_32-1"  format="ascii">4.1069956754221415e+01  4.2412139876535463e+01  4.4494864364077387e+01  4.6394085813568665e+01  4.7768770717400017e+01  4.9803902091142966e+01  5.0473666275300729e+01  5.0778716166902349e+01  5.0894940339454543e+01  5.1881126772684205e+01  5.2579161442284736e+01  5.2234770344918012e+01  5.2171867493450542e+01  5.4482276886833787e+01  5.5823287594039328e+01  5.6974946639829149e+01  5.8385463743975116e+01  5.9742017170720949e+01  5.9533112182686097e+01  6.0121958987345309e+01  6.2523220158352402e+01  6.4291136877178673e+01  6.6193959145094524e+01  6.7171205063554893e+01  6.7735159281816692e+01  6.9149545284716567e+01  6.9550147541307780e+01  7.0377765803177226e+01  7.1857690295994786e+01  7.2692883300997977e+01  7.2857682847769581e+01  7.3220982884524474e+01  7.4208586961543290e+01  7.5070520893246538e+01  7.5238475872533286e+01  7.6166739412030068e+01  7.7469888504490868e+01  7.8863967841688563e+01  7.9897409948074710e+01  8.0701641926138166e+01  8.1915267811289908e+01  8.3057043307688986e+01  8.4064808543429848e+01  8.4935784759947268e+01  8.5703680509805736e+01  8.5861214033673804e+01  8.6257380915621951e+01  8.6780286568030419e+01  8.7221249171898464e+01  8.7442048983994823e+01  8.7502211775663042e+01  8.7556571689868477e+01  8.7522162664759861e+01  8.7598204951039889e+01  8.7855983457491789e+01  8.7833568275068899e+01  8.7834263964693605e+01  8.7946379397108601e+01  8.7655540959556660e+01  8.6874549577925023e+01  8.6045570885470127e+01  8.5356573099834648e+01  8.4288167091262409e+01  8.2555156623042933e+01  8.2315655148150100e+01  8.4462188791343038e+01  8.5019989230743533e+01  8.5145026099050000e+01  8.5312475523538367e+01  8.5542532147779937e+01  8.5836547086185632e+01  8.6901748424362282e+01  8.7344798243380353e+01  8.7654628212359441e+01  8.7733043148158785e+01  8.7382235044060906e+01  8.6726400280994653e+01  8.6124145235484875e+01  8.5512036007320233e+01  8.5942394832134838e+01  8.6273779366050348e+01  8.6703020837006605e+01  8.6815311775163650e+01  8.6816933386573766e+01  8.6875065387095233e+01  8.6856027426312949e+01  8.6569860196949065e+01  8.5682456674317280e+01  8.4203125586707927e+01  8.4058713921615436e+01  8.5563601329937214e+01  8.6227633601831442e+01  8.6425348293032513e+01  8.6286801169502866e+01  8.6401548338619108e+01  8.6245247713323621e+01  8.6250839867707199e+01  8.6064018505977245e+01  8.5989853794984171e+01  8.5687816374759905e+01  8.3386447895026379e+01  8.0929759571798428e+01  7.7713054867206353e+01  7.4617014028449745e+01  7.1634932526112749e+01  6.9318168219242537e+01  6.7622172502435873e+01  6.6147401378705638e+01  6.4513025014145811e+01  6.3066733478436909e+01  6.1272613444223886e+01  6.0659258350416472e+01  6.1065415055096274e+01  6.3949648418941948e+01  6.6073056266895946e+01  6.6924639674716147e+01  6.7832877419196549e+01  6.9486149359988872e+01  7.1913097205075246e+01  7.5133529000959612e+01  7.6179585082943532e+01  7.6192155037731553e+01  7.4647648631652942e+01  7.1972445272299410e+01  7.1551412450335036e+01  7.3903615320466898e+01  7.5581922605576693e+01  7.6198370137314043e+01  7.6208442582619213e+01  7.4360926023510956e+01  6.9387351300991227e+01  6.8673571694750819e+01  6.7650161485867386e+01  6.7102623369136026e+01  6.6183544883078667e+01  6.4987094252691506e+01  6.3591041575289410e+01  6.2284417615886795e+01  6.1056904886477845e+01  6.0514244969267885e+01  6.0208859939681140e+01  6.0031601761994608e+01  5.9549890458244484e+01  5.9412585628048113e+01  5.9428964919970632e+01  5.9999831393035848e+01  6.0734764024457064e+01  6.0873811566504905e+01  5.9791701437330858e+01  5.8587921925163428e+01  5.7405620964450840e+01  5.6678842182361919e+01  5.6359688004307898e+01  5.4824206386714991e+01  5.3384703029934265e+01  5.2033219383237309e+01  5.1626276274135819e+01  5.0461727313853643e+01  4.8983536812543747e+01  4.9298755979350787e+01  4.8538314767437313e+01  4.7661085430984421e+01  4.5801673235654938e+01  4.3638971803461040e+01  4.2279481223173605e+01  4.0734931317361877e+01  3.9425637168103130e+01  3.8132051102482173e+01  3.7390039263830516e+01  3.6933112789742502e+01  3.5871060501879704e+01  3.5202634433641776e+01  3.5117068648628070e+01  3.4993449959558632e+01  3.4392521282113499e+01  3.3905523834950536e+01  3.2797322673256829e+01  3.1842688460137495e+01  3.3073777797266878e+01  3.0948490402336553e+01  3.1070996469395215e+01  3.2961099531157309e+01  3.2917690540143219e+01  3.3332012155328705e+01  3.2780437899924543e+01  3.2150976927011826e+01  3.1720387536155389e+01  3.1893674212146220e+01  3.2476427705233426e+01  3.3245847761166374e+01  3.4025291787773497e+01  3.4891656942398228e+01  3.6005811229018072e+01  3.6383057188414000e+01  3.6781913104919028e+01  3.8136534056755970e+01  4.0280210773635929e+01  4.1190366134025155e+01  4.0563137589098517e+01  4.0487559798086174e+01  5.2490463172969548e+01  5.9840535874678089e+01  8.4868154956193223e+01  8.7320357624985448e+01  8.7821594101479022e+01  8.4973428202369334e+01  8.7625307429485488e+01  4.9043385109919420e+01  8.4824690164670301e+01  8.6387967051213536e+01  7.3284250778753091e+01  7.2441699622017097e+01  5.9636320189417596e+01  5.9440978357186118e+01  8.6440384129269120e+01  5.2490850446711782e+01  5.2280179499289559e+01  8.4590142519177633e+01  8.5129307802002074e+01  4.9042493652314661e+01  8.3894906009119950e+01  8.6387948726209231e+01  8.5174545772615858e+01  8.4443207990357024e+01  8.6365808385487739e+01  8.4517669496608264e+01  8.6365427222170055e+01  4.9402557212133431e+01  6.6990227576489318e+01  7.5671194618961380e+01  5.1888079414738925e+01  3.6843702280334625e+01  5.3954763550141145e+01  7.4876204511564708e+01  6.1608679347415041e+01  6.4212328258279229e+01  4.1974323452280366e+01  4.3692997313094814e+01  7.5730559478988781e+01  4.6397958023207600e+01  8.1751240727017489e+01  6.7744055681042411e+01  5.5356103546645969e+01  5.6562762510475771e+01  6.9297389481839033e+01  3.3668073067601334e+01  7.7708483516402040e+01  6.1647202189356577e+01  7.1295913693763751e+01  5.2192499575618001e+01  3.7018824501219996e+01  4.7682052346771066e+01  4.5322570946013684e+01  5.7620259970860999e+01  4.3057785457014631e+01  8.0918161735978941e+01  3.6629420517036657e+01  7.5360483935746117e+01  6.5551198338994567e+01  6.9720297334279792e+01  5.0513174939527168e+01  7.2418359530844697e+01  6.1195093629824918e+01  6.8159799727184847e+01  6.4760246202082655e+01  5.5675199948465405e+01  3.8856855093849582e+01  5.9776009420947688e+01  7.9629298454205340e+01  7.4370178782211696e+01  8.5259496106633250e+01  7.1387276651700958e+01  6.9411460231737095e+01  5.6153505571385928e+01  3.9491879569114623e+01  4.1399519898478225e+01  5.9601526379306776e+01  7.8804663565023773e+01  6.0710595374855309e+01  3.5077403681337124e+01  3.9285949839057693e+01  8.0928612117761546e+01  4.5232178392503627e+01  3.1800344579646069e+01  6.7507941455422895e+01  7.5587958341747168e+01  6.5071406516086299e+01  5.0986139444925257e+01  8.5186841637968968e+01  3.8866053451125403e+01  5.0659528365106411e+01  5.9966339215771093e+01  6.5502000312531038e+01  5.6360774517742840e+01  4.7076090470581200e+01  4.3499242120944309e+01  5.7059390160053773e+01  4.8105546350366303e+01  4.7822211833138077e+01  4.4423278585184740e+01  4.9706083663098369e+01  8.4314896942937850e+01  7.8238524421800449e+01  5.2928155900961478e+01  8.2902144844546029e+01  7.5576550112701355e+01  7.4506329503094307e+01  8.0242387297526903e+01  6.2475532209730829e+01  5.8934917848194928e+01  6.6764897929477158e+01  7.2209049535108520e+01  5.8026307584783261e+01  7.8167267953855699e+01  5.1553393635623536e+01  6.5458471077351405e+01  3.2396749954162928e+01  4.9861648554238194e+01  6.9008921201198717e+01  7.7122783429731342e+01  6.4863702653995091e+01  7.0726634795309039e+01  6.2806537635495303e+01  7.1193659068652892e+01  3.5886343136852467e+01  5.3774097781535424e+01  5.3177746435761115e+01  7.9546499170038530e+01  6.7854851519582780e+01  3.7558396748602689e+01  7.9088906178119231e+01  6.3608530448049386e+01  8.4205483124287099e+01  3.3293125486837553e+01  8.4544160849315517e+01  8.4481154155235757e+01  5.5250029212715916e+01  5.0840652529448469e+01  8.4554977644127945e+01  8.5576732034400862e+01  8.2724612506918874e+01  8.5029076046912309e+01  7.1373343247158076e+01  3.6048970074336168e+01  8.0615088366545407e+01  7.5572268736927882e+01  5.6125262074615264e+01  5.0421732996830542e+01  4.7015728289782921e+01  8.5272094872860194e+01  8.4481458181153897e+01  5.8218598170553499e+01  8.5702472515377437e+01  8.3514810218824550e+01  8.4003032732191130e+01  8.5757325843267267e+01  5.9798456938213874e+01  4.8875218254768804e+01  7.0891339743470979e+01  3.4089772155692749e+01  4.8838240225408285e+01  3.6890141005343892e+01  6.8943670481531043e+01  8.7067284933542737e+01  6.6550624953838167e+01  7.2709043838553384e+01  8.3242385408327735e+01  6.0122093783691192e+01  3.0733086116831565e+01  7.1891927762785897e+01  3.9530996783266502e+01  5.2163707095771784e+01  8.4762937959365900e+01  8.2784612626485156e+01  6.1807737423753728e+01  8.7075112322026442e+01  4.3958260523232532e+01  8.5323402673292435e+01  6.3658205743554340e+01  3.2405036771773034e+01  3.6208804769560921e+01  3.7275040172714291e+01  7.2438885899206866e+01  8.1625518027497208e+01  8.0876595423438616e+01  6.8464968871335586e+01  8.5005441607251981e+01  5.9728915851297259e+01  4.8825208562603869e+01  4.8817176781076874e+01  3.2283470242128388e+01  8.4554542735284286e+01  8.4731082283149320e+01  8.4800890899573503e+01  7.5301968835750927e+01  8.1346319062764294e+01  8.4918407071863626e+01  8.3352914036540454e+01  6.6735893641753663e+01  8.7758366282256134e+01  8.7691038795758899e+01  6.1040556443049944e+01  3.5108051578405529e+01  6.0730774727656517e+01  8.1847913281626859e+01  5.5784045085360141e+01  6.4492966898273906e+01  8.7304567309669963e+01  6.1789435211121962e+01  7.3211394974984913e+01  4.0827089646207845e+01  5.6405780578642968e+01  5.5629659633612896e+01  5.7003595567740135e+01  8.5783563765062866e+01  5.0255117160344795e+01  5.1190900729638223e+01  4.9243578739287159e+01  5.1061337389847729e+01  4.7236497086984052e+01  3.2851023542887354e+01  3.1013383644882879e+01  5.2106168156993618e+01  5.4956208217510209e+01  7.5842010641760709e+01  7.5739390567508053e+01  8.7524512232500740e+01  6.6842107029194153e+01  6.4949538301756121e+01  6.0815716850072555e+01  6.0255164726066106e+01  6.0460817500163870e+01  6.0737268672639601e+01  6.0366760258998717e+01  6.0414777947831212e+01  6.2379353573970249e+01  6.0549140038409483e+01  6.1102108453441872e+01  6.4036798436113088e+01  6.2435046025199242e+01  5.8574831479880764e+01  6.0094212711677180e+01  4.4624215503620064e+01  4.6434555851327595e+01  4.4584877466471745e+01  4.2955377584554540e+01  4.3573557006657524e+01  4.1552648651474897e+01  4.2893963378980224e+01  4.2221214006469118e+01  3.8884496358270276e+01  3.7670651742781139e+01  3.3927666981199714e+01  3.4432641184004005e+01  3.4409594529446785e+01  3.5464677330072327e+01  3.4894264938848735e+01  3.6222250706504063e+01  3.6368409113970330e+01  3.5533991444403924e+01  3.6579734791631445e+01  3.6511349200254841e+01  3.7160584014964364e+01  3.6644094895718126e+01  3.7801516408056784e+01  4.0520000956182173e+01  3.8864257506836744e+01  4.8026487512566362e+01  4.6526271049757632e+01  4.7137068720557643e+01  5.0700983526656067e+01  6.8660307380904399e+01  6.7511350328743774e+01  6.6347499988926756e+01  6.7936226689276594e+01  7.3811819288726113e+01  7.6981010926082320e+01  7.5148092990978313e+01  7.6836767620479975e+01  5.4482009003447175e+01  5.0044822890943564e+01  5.0778889596583639e+01  5.2883723544987923e+01  3.7230613546135693e+01  3.8868557407650613e+01  3.6876141326831672e+01  3.7761595315334873e+01  3.7199050729708460e+01  3.6663727704151057e+01  5.4991955852348461e+01  5.7097865504921003e+01  5.2300682124240083e+01  5.5168964298656903e+01  5.1793806858266727e+01  7.5293327394685690e+01  7.2566549988928955e+01  6.1138698507997859e+01  6.0719271817987689e+01  6.3202561954280128e+01  5.9886956173623780e+01  6.3175585524954862e+01  6.2176370428056693e+01  6.3171931032040838e+01  6.6300691193517579e+01  6.4954115558431965e+01  3.8725280204765760e+01  4.0053932439106610e+01  4.1635040563519240e+01  4.0790307157174190e+01  4.3886153438712128e+01  4.3306480158812867e+01  4.7561769322051695e+01  4.0699686946987889e+01  4.1196646880201882e+01  4.5523973572256978e+01  4.6053826751691474e+01  7.3521124201376239e+01  7.7586971895895942e+01  7.4936532487924623e+01  7.8151550580394058e+01  8.0761388214353858e+01  7.0173388354225793e+01  6.6344733618106034e+01  6.9100284832087581e+01  6.7771073193227522e+01  5.2935430542161285e+01  5.6310980582941383e+01  5.6629177284857462e+01  5.2873923530409094e+01  7.2042898496994283e+01  6.9657791928730674e+01  6.9483955491573951e+01  6.7460438906391985e+01  3.5047074653287467e+01  3.4001190023310180e+01  6.1611164479169787e+01  6.0631584380130938e+01  5.9513966649782617e+01  7.1667437981523335e+01  6.9654314935157245e+01  7.3130208176568587e+01  6.9824308382472225e+01  5.4203905451577597e+01  5.0314266185088663e+01  5.0897661141822532e+01  5.2471369442986806e+01  5.0762068665108806e+01  5.2447500259616959e+01  3.7635972123706466e+01  3.6601329925797160e+01  3.7806416913959687e+01  3.6677930037528924e+01  3.7143443076746365e+01  3.7150481092599207e+01  4.6382919657072947e+01  4.9201370240783177e+01  4.8477733147289108e+01  4.9234124822802087e+01  4.1295210298312604e+01  4.6582150536988273e+01  4.6507859191966233e+01  4.7784980716693717e+01  4.2006322444815595e+01  4.4552132541634236e+01  5.7542809296803874e+01  5.8903014003613748e+01  5.6699118740311086e+01  5.6422542132432753e+01  4.0935651307498063e+01  4.4372585911431457e+01  4.0463991154680926e+01  4.5101261763247649e+01  3.7822305751038570e+01  3.4737391959867608e+01  3.7761180281960087e+01  3.6271464348620164e+01  3.6332620067097096e+01  3.5465165629337484e+01  3.7064116130923964e+01  6.5302110966697583e+01  6.4066320666668275e+01  6.6817169834459307e+01  6.6232513853533945e+01  7.0282810357887072e+01  4.8853261003459600e+01  4.9387583540970574e+01  7.0653916813532106e+01  6.3335385268155605e+01  5.9912961538896838e+01  5.9321889792439016e+01  6.2404611987873004e+01  6.9583051597769540e+01  6.7505508476427423e+01  6.3557510004427456e+01  6.3339831098444634e+01  5.7509747745223336e+01  5.2729779084411518e+01  3.9401654282364952e+01  3.8813878458014173e+01  3.7905340038965718e+01  5.9138979128387938e+01  6.1303182296811805e+01  7.6825823622254404e+01  7.8827821722081353e+01  7.2822707042075450e+01  7.6316171893515175e+01  7.3098453984956649e+01  7.3428924804409988e+01  6.8439250834559118e+01  6.7618526859572185e+01  5.6232520854884605e+01  3.8439954098441355e+01  5.8329099931708285e+01  5.8795427651472224e+01  3.5246571734104784e+01  3.6420444918810595e+01  3.5189589322238163e+01  4.2455338948186451e+01  4.4898417334745673e+01  5.3764029439791670e+01  5.0203735238608658e+01  5.0934383118708489e+01  5.0425286514083290e+01  5.9690718913107148e+01  5.9958716194231222e+01  6.0513190276882625e+01  6.0639238764009249e+01  6.5051216459303490e+01  6.4520284231739183e+01  5.4838484089180653e+01  5.0077518246188731e+01  4.8911364099748432e+01  5.0708117175122204e+01  4.8821169646016457e+01  4.5773523898596423e+01  4.7010102633128369e+01  5.5674787529868375e+01  5.2455636698210725e+01  7.6267890310331779e+01  5.4642930827508174e+01  5.1512845294087704e+01  6.3686554562117422e+01  6.6572594586250645e+01  6.9002768037258420e+01  6.7302994130196950e+01  3.7231537332971257e+01  3.4068714497015883e+01  3.6779016273355168e+01  5.9975752868613625e+01  3.6229226202242046e+01  6.0650356000343677e+01  4.1835402819936860e+01  3.8107137858983812e+01  6.1400496838402823e+01  4.9321983094926203e+01  6.8332809872769687e+01  3.7074142371281710e+01  3.7421784103877229e+01  3.6742996564092756e+01  3.6908063474849115e+01  3.6685028408508096e+01  6.2706194885768298e+01  4.3770793155740378e+01  4.5783743635436132e+01  4.4911727679940689e+01  7.6188726145832916e+01  5.8947505849536007e+01  5.4147103361240646e+01  5.3996849246057344e+01  5.4719032809941339e+01  3.4945349609480701e+01  6.9823507414967409e+01  7.0379805413086018e+01  3.7519297901849846e+01  3.7162754187332673e+01  4.7707320860713338e+01  4.8369468775213235e+01  4.3183800090903233e+01  5.7350454698958210e+01  6.1008175011783351e+01  6.2221843948008235e+01  6.0090683440602163e+01  6.2802861765943511e+01  3.9820145776151698e+01  3.8309450682231642e+01  3.8736714670268960e+01  3.8376784599902003e+01  6.9860917117542414e+01  3.8481613400953918e+01  4.0052165284828305e+01  4.0861689213647466e+01  5.1561507385089342e+01  5.1883484659879038e+01  5.2236249289043705e+01  5.0513791597926108e+01  4.0034392939964413e+01  3.8139730689947285e+01  3.9224625564835257e+01  5.0020540548088867e+01  7.3968392959599029e+01  7.4653210796717204e+01  7.5559396672459158e+01  6.2251962686917139e+01  6.7415441918111753e+01  5.2976502340969837e+01  5.0317593064557997e+01  4.9425816939239809e+01  5.0768952203027155e+01  6.5715059079506361e+01  6.2443945268691074e+01  6.3189527248769828e+01  3.6660432596195967e+01  3.6394902423017200e+01  3.6089328198547243e+01  5.2919122253535235e+01  5.5180233681256439e+01  5.5116798542072239e+01  5.2422373107774739e+01  6.7274584477877752e+01  3.6322599837257727e+01  3.6774197425490627e+01  3.6636559451099600e+01  6.0499302142071102e+01  6.0236678315955189e+01  6.0308610149299881e+01  4.3047330411925373e+01  4.4233228449561516e+01  4.4824211628488740e+01  3.7471349627304164e+01  3.5342353806731083e+01  3.5792187417293135e+01  6.1340224331337573e+01  6.2776082242653182e+01  6.1956694947267010e+01  6.1153192440438460e+01  6.1163228139192306e+01  6.1560170610403716e+01  6.0834766468344924e+01  4.5098485961636378e+01  3.5877437470887983e+01  4.8643982013015723e+01  6.9178492705082320e+01  5.1730816885703796e+01  5.1178373746159451e+01  3.6914160612347793e+01  3.7782616851313421e+01  3.7931838003321708e+01  3.9071435046457900e+01  3.8437993142484430e+01  3.7397166753828714e+01  5.2031236498810536e+01  5.1173676792040773e+01  5.0985912136759623e+01  6.2084983868800833e+01  6.2926519912016644e+01  3.7971664968733613e+01  3.8697484524255309e+01  4.1960745533021282e+01  4.2329941945654824e+01  4.6906070151803874e+01  4.0690485633176031e+01  4.0787666365746674e+01  4.0143162002600910e+01  4.7865804402975513e+01  7.5816171951147538e+01  5.3307748959784114e+01  5.5034031159075099e+01  5.3704067093786513e+01  6.8280226211419233e+01  6.8895178503487656e+01  6.7693576270657758e+01  5.1618404634135061e+01  5.3591184842729398e+01  5.1874207033699768e+01  4.5134169651558807e+01  5.6508765906306799e+01  5.5445694304238508e+01  3.8601953189166117e+01  3.7855643414851976e+01  6.6131538966767408e+01  6.5926106937027541e+01  6.6748913357843378e+01  3.8272254677418303e+01  3.6356296127821103e+01  </DataArray> 
</PointData> 
</Piece>
</UnstructuredGrid>
</VTKFile>