<?xml version="1.0"?>
<VTKFile type="UnstructuredGrid"  version="0.1"  >
<UnstructuredGrid>
<Piece  NumberOfPoints="784" NumberOfCells="1320">
<Points>
<DataArray  type="Float64"  NumberOfComponents="3"  format="ascii">266913.131276 586512.314988 0  266738.13716 587762.325998 0  266363.132677 589012.328643 0  266175.641078 590169.601714 0  265666.575631 591040.7699119999 0  264875.64001 591687.766419 0  264900.636161 591845.049083 0  266088.14152 592012.3229499999 0  265561.959259 592661.17101 0  264288.136855 593037.368683 0  263865.194033 593999.8486949999 0  263850.641856 593236.729596 0  263625.634872 592756.525286 0  262689.574249 593299.848918 0  262475.636737 594003.0907310001 0  261934.554452 594340.929792 0  261725.631329 594932.094409 0  261729.256443 595728.498809 0  262138.136044 595012.330523 0  262288.141035 596262.333669 0  261488.994028 597511.480605 0  261234.15567 598316.338928 0  260815.635063 599014.863821 0  261400.643658 599389.7367680001 0  261322.963374 600022.185065 0  261119.455248 600931.061306 0  261607.436504 601293.0629359999 0  260807.446929 602089.899812 0  260025.642878 602988.868697 0  259613.135827 603937.3854499999 0  259050.643123 604100.987861 0  258411.880065 603988.6335979999 0  257764.357469 604449.872569 0  257971.239668 605320.429125 0  258041.396867 605740.635381 0  257188.143339 606987.394312 0  256038.141198 608112.3554550001 0  254788.141633 609087.4026939999 0  253588.140656 609812.362881 0  252338.135706 609737.4048949999 0  251088.138116 609787.404055 0  249963.12851 610287.399466 0  248613.130524 610462.365857 0  247363.132198 610687.407659 0  246113.130532 610837.411551 0  245832.347438 610918.209918 0  245016.946433 610958.5639439999 0  244313.129646 610762.372259 0  244400.622144 611378.093316 0  243939.669208 612460.8930899999 0  242960.649733 611984.892792 0  242170.381438 611919.647351 0  241888.122919 611112.375656 0  241393.380757 610467.6456149999 0  240594.157528 611306.369822 0  240525.621947 610804.648112 0  240363.123632 610512.3745050001 0  239113.123247 610262.374278 0  239813.12126 609037.412459 0  240588.122952 607812.368199 0  241013.119545 606625.9534560001 0  241454.373249 605724.888025 0  242238.120107 604687.3993 0  243088.121248 603462.362766 0  242860.319451 603007.3932640001 0  241563.116617 603812.361344 0  241778.400913 604327.642217 0  242059.837234 604824.879102 0  241475.620201 604923.2402390001 0  241462.182234 605449.881372 0  240906.219606 605674.888222 0  240241.856192 606891.125066 0  239891.734044 607841.012479 0  239048.653431 608724.889805 0  238118.054545 608974.895967 0  238888.111029 607337.406468 0  239738.119992 606212.362729 0  240288.12044 605687.4075229999 0  240380.212307 604729.521696 0  239347.309632 604603.204501 0  238888.112036 604387.408787 0  237913.11173 604687.401386 0  236784.172023 604499.882783 0  236883.408793 603717.08334 0  236154.933927 603595.565605 0  235688.103943 602912.369264 0  235763.108033 601662.366516 0  236363.110805 600412.35884 0  236738.107995 599162.356577 0  236525.607944 598482.2412899999 0  236138.109208 599362.357613 0  235725.063048 600325.4466510001 0  235091.948926 601408.5220979999 0  235188.10921 600312.366344 0  234375.602405 600833.9674270001 0  234663.109308 599912.358011 0  234138.105122 600062.365644 0  233955.307245 599029.561063 0  233338.103791 598387.401556 0  233988.09795 597862.356384 0  235138.101489 596637.3947750001 0  235563.1039 595387.392428 0  236513.103639 594212.356312 0  237163.10684 592987.3929869999 0  238313.103031 591862.3515540001 0  239513.107028 590812.3512640001 0  240638.102135 589787.387271 0  241463.109549 588587.378486 0  242294.489816 587443.735215 0  242913.101099 586512.341804 0  243544.066915 585474.859604 0  243040.448415 585184.975583 0  242438.10214 585337.38015 0  241313.102353 586562.339499 0  240538.107104 587787.382449 0  240114.641085 588588.939407 0  239388.100256 589437.382238 0  238188.104456 590512.346358 0  236938.100507 591362.349798 0  235813.10453 592537.396388 0  234864.502938 593178.7753880001 0  234463.097651 592862.357267 0  235113.0965 591662.3545979999 0  235713.101522 590412.346099 0  235777.688431 589976.7582779999 0  234943.583145 590706.265132 0  234462.482256 591490.2841159999 0  233801.497784 592112.940187 0  233388.099101 591787.394208 0  234013.093099 590437.393065 0  234776.217248 587148.7548100001 0  235163.093726 586562.3486189999 0  235313.098918 585483.229012 0  235250.59732 584662.298153 0  235588.093896 583337.379493 0  236329.432041 582199.858992 0  237188.096234 581462.3349939999 0  237463.088521 580212.335511 0  238350.592558 579057.652616 0  238591.415797 578574.847681 0  238313.094106 577612.328905 0  239229.696732 577695.769664 0  240195.161018 577513.008613 0  240614.996733 577149.8518770001 0  240663.091715 577412.332622 0  240288.092486 578662.334085 0  239942.357258 579508.095811 0  240438.100019 580212.3334220001 0  241338.095553 580387.375355 0  241238.099828 579137.369157 0  241788.097003 577887.370889 0  241983.554649 577241.9220939999 0  242054.178239 576927.8105029999 0  242588.100699 575737.366175 0  243149.324833 574898.583978 0  243695.278626 573919.517981 0  244268.494418 573724.8454239999 0  244995.134063 573930.2767810001 0  245417.314363 573391.601898 0  243450.599125 571859.479773 0  245776.797908 572599.8353060001 0  246779.639852 572973.285167 0  248034.741935 573186.082054 0  249413.10651 573162.3205520001 0  250496.922226 573271.1521899999 0  251613.105126 573237.3551319999 0  252421.824577 572846.032906 0  253256.245022 572580.4733130001 0  253739.471933 571960.9547369999 0  254174.511864 572149.8346569999 0  254484.944333 571684.194807 0  254384.108649 570891.346712 0  254344.002752 570218.26407 0  255025.609604 570829.0294979999 0  255715.005913 570489.264586 0  256218.846343 570774.828355 0  256834.349083 570508.5908 0  257390.092515 570014.308325 0  257624.431042 568493.478911 0  259355.811717 569380.021819 0  260033.372814 569617.066669 0  262679.741751 570320.699974 0  263289.115756 569524.817815 0  263463.114338 570512.301061 0  264638.198419 570687.3443539999 0  265058.220065 571334.378467 0  265447.561421 572077.90485 0  265488.125257 573137.3446020001 0  265131.937715 573963.293593 0  265432.389648 575093.068786 0  265638.122314 576338.029955 0  265750.630817 577371.8281319999 0  265738.570663 578561.9098850001 0  265875.630866 579139.630549 0  266213.129247 579862.311842 0  266563.130472 581112.314509 0  266238.135356 582362.310259 0  265938.12863 583612.320897 0  265738.131342 584762.3210189999 0  266875.638633 585365.358768 0  264018.7239399826 593650.4646671159 0  262236.3944351029 595831.1252656333 0  241846.246678 605206.1436625 0  240200.622106 608424.8903290001 0  240943.4862974102 610939.7757535663 0  236550.6094 599787.3577085 0  238528.1212051503 608102.9081793013 0  244413.4891967989 572609.5960859474 0  236382.0474488751 598808.3067022427 0  235369.601910944 600933.5380148316 0  235413.099011 591037.3503485 0  235446.2251831186 590266.6553871984 0  240475.5921005 578037.3333535 0  240413.173949154 577324.4280286073 0  240574.037899 606283.0066440001 0  263857.9179445 593618.2891454998 0  264153.4303974913 593343.916675058 0  242042.1833925 604946.7714812499 0  241650.3099635 605465.51584375 0  244613.6985165 572229.6575395 0  236631.8579695 598822.2989335 0  235140.029068 600860.444221 0  241767.7287175 604874.0596705 0  242140.15174975 604817.0853906251 0  234781.8558075 600573.1668855001 0  242091.167571125 604881.9284359375 0  234519.3558565 600373.162719 0  254604.8337712102 583989.0014118921 0  250699.5846056537 594617.3297041012 0  250540.4796469513 602258.2940568649 0  248483.7490186612 580334.7345534252 0  258549.2190328319 577893.951823392 0  257067.0067473103 590016.5327808241 0  243285.0921999099 596333.923437875 0  248333.1386145258 589098.0389905117 0  256142.8445072741 595883.3911551933 0  260245.1368072523 583315.2785712298 0  253472.3380211276 578932.2908163272 0  246432.3347504817 599884.5019511909 0  261555.9240922556 588041.186709004 0  247293.1100123104 605823.8307887657 0  246458.2798550911 593168.8646574575 0  252840.0183145193 588226.5564648228 0  249828.2874404451 584740.7888937403 0  255409.5660975206 600458.8956828594 0  260819.9733392385 574219.403683011 0  252584.2262054711 605722.6603825617 0  254049.8830611471 592547.4852571967 0  250015.4356193061 598425.2225922942 0  245872.072249477 577604.9761853142 0  262002.1583249522 579753.4663046852 0  257732.6630933878 586227.970805314 0  250242.5556457866 577017.3316409125 0  244921.6453001869 581816.6358421432 0  256520.3890639471 580904.824006648 0  240779.0970645865 599524.6679555867 0  257100.1829219198 574459.5922545703 0  239912.2630002034 595231.1172704464 0  244703.0875078634 590068.6945953515 0  242549.5490268674 592874.3693043783 0  251586.0465921376 581796.2215047925 0  246643.189997516 596527.447801719 0  251049.7658069622 591057.6752245198 0  253014.5731561695 596998.6601086652 0  238680.2197353724 584542.2309791476 0  259715.365803504 591937.1938619445 0  254097.157218761 575731.4494927844 0  246806.6408589328 586139.0877599345 0  246136.1179750556 602959.471719323 0  253520.7033332401 602835.180253843 0  244125.4295793909 607538.9817227355 0  252546.8895354472 599881.3279113505 0  258289.0983523553 600397.640191779 0  247518.7952199645 583037.3718217331 0  263140.3959879661 582529.2228421422 0  262894.8586894067 585442.3590432997 0  256968.6320599076 593040.7691844478 0  243573.0187527719 600218.2795730785 0  258888.5766127351 595139.7745218446 0  262588.7569809347 576734.8569237856 0  259318.4257992262 580601.2540325444 0  249963.3812725965 607065.7205847671 0  257494.5307999607 583482.5893534871 0  258906.4757205145 572278.8089438241 0  237751.446593475 587300.5805003279 0  255142.4708720699 604956.7580261135 0  258485.4978753244 597756.9250383095 0  255516.7820591553 587791.39641967 0  239758.4692108706 601926.8203218657 0  255873.0092222999 577739.5085867504
[...]
<PointData  Scalars="f_24704-1"> 
<DataArray  type="Float64"  Name="f_24704-1"  format="ascii">4.1038222757250864e+01  4.2396968744403068e+01  4.4446703954488868e+01  4.6379072610566332e+01  4.7769457219396358e+01  4.9792357115872008e+01  5.0458778916274269e+01  5.0735917370678365e+01  5.0865228577718781e+01  5.1893726315125605e+01  5.2618626200201462e+01  5.2256805559006899e+01  5.2159728801194589e+01  5.4453765087651632e+01  5.5802682891149743e+01  5.6942384644874856e+01  5.8346335258395122e+01  5.9685583307389521e+01  5.9447565720935799e+01  6.0071671954959527e+01  6.2481383749932327e+01  6.4226300053318994e+01  6.6155522396636414e+01  6.7123301305425272e+01  6.7693469217914796e+01  6.9111909758853358e+01  6.9509097993236239e+01  7.0347732916340078e+01  7.1841178089695873e+01  7.2676388115928418e+01  7.2839647981238912e+01  7.3197167387736854e+01  7.4176997925022178e+01  7.5029775418289617e+01  7.5198848528961634e+01  7.6126481260819915e+01  7.7435694002637746e+01  7.8834255516308346e+01  7.9875205751724749e+01  8.0676742328477417e+01  8.1886555689837550e+01  8.3035401343504432e+01  8.4039798607475106e+01  8.4910195782945792e+01  8.5675752142936290e+01  8.5831845342591237e+01  8.6224969440273782e+01  8.6744525414543077e+01  8.7185050416873992e+01  8.7408512424231589e+01  8.7472382601973365e+01  8.7529593686107447e+01  8.7492448491316580e+01  8.7566065188616037e+01  8.7829567816108977e+01  8.7806178665275212e+01  8.7806162567203558e+01  8.7920973507797910e+01  8.7622861682023327e+01  8.6837639418291772e+01  8.6009903896726996e+01  8.5319039433722367e+01  8.4250345295543227e+01  8.2526680435020111e+01  8.2273412952672786e+01  8.4416594150715227e+01  8.4972748523769127e+01  8.5096707279930783e+01  8.5266142855120819e+01  8.5496270194785382e+01  8.5794183689996345e+01  8.6858583909304343e+01  8.7305386707376556e+01  8.7624065309360802e+01  8.7705965249087257e+01  8.7343477841146552e+01  8.6685354344985853e+01  8.6084930819055344e+01  8.5468565363125336e+01  8.5903420854726107e+01  8.6235558604816049e+01  8.6664931997145132e+01  8.6777229720983996e+01  8.6779265026065119e+01  8.6839147050704369e+01  8.6821002227839230e+01  8.6533287228007950e+01  8.5645303756294240e+01  8.4168284749172159e+01  8.4026250059083637e+01  8.5533069367744062e+01  8.6200135709401607e+01  8.6399760049351485e+01  8.6261660159975534e+01  8.6381251621957105e+01  8.6223926340232453e+01  8.6232302412523552e+01  8.6046557852621589e+01  8.5973606372714627e+01  8.5670549330988635e+01  8.3362615565175730e+01  8.0918773563839082e+01  7.7676831146626483e+01  7.4561489609192265e+01  7.1556490660930208e+01  6.9267287095651909e+01  6.7608059100801924e+01  6.6094418041628785e+01  6.4511599045132257e+01  6.3042063021402427e+01  6.1283214589532754e+01  6.0684763646723134e+01  6.1108269964927409e+01  6.3964702761398158e+01  6.6058923936221490e+01  6.6903532515174234e+01  6.7805578647481994e+01  6.9450729253893485e+01  7.1881065849173424e+01  7.5151548592492020e+01  7.6230079789547943e+01  7.6243394507685991e+01  7.4654688771430443e+01  7.1943198053630482e+01  7.1522169520633867e+01  7.3898388231503731e+01  7.5605824771909354e+01  7.6240392057450606e+01  7.6251594920400436e+01  7.4363546499338852e+01  6.9366865753087609e+01  6.8658651339926010e+01  6.7638668709150224e+01  6.7093386756250865e+01  6.6175303558503913e+01  6.4973544201541259e+01  6.3577379228948708e+01  6.2273027905861845e+01  6.1041528756553973e+01  6.0492323364228419e+01  6.0185853071826315e+01  6.0000504080368358e+01  5.9498170907281882e+01  5.9355100911896777e+01  5.9372106953882934e+01  5.9962162144077055e+01  6.0701947807993946e+01  6.0838102537169647e+01  5.9792790225075692e+01  5.8597878432294188e+01  5.7410322270885366e+01  5.6682881641527288e+01  5.6358955548751190e+01  5.4833005352823307e+01  5.3380425147697530e+01  5.2008803308462689e+01  5.1600468624989098e+01  5.0443336139653262e+01  4.8967614408441861e+01  4.9305201117649680e+01  4.8518866235426643e+01  4.7617304931455180e+01  4.5780592870568270e+01  4.3631185980177882e+01  4.2253166321341162e+01  4.0735924357009651e+01  3.9423891935373014e+01  3.8131343992257797e+01  3.7390680941980520e+01  3.6933896340861871e+01  3.5868138867541006e+01  3.5189630096180792e+01  3.5101187524964779e+01  3.4979098607521642e+01  3.4371658935941092e+01  3.3891720184614655e+01  3.3003379642633810e+01  3.6362741355947463e+01  4.8034857164758087e+01  3.8534050822122559e+01  3.5057150250539614e+01  3.3004063537383260e+01  3.2902557153366040e+01  3.3378599079471492e+01  3.2772982919232561e+01  3.2108644296638602e+01  3.1683213399425309e+01  3.1874453724113295e+01  3.2460934161750089e+01  3.3235381045702063e+01  3.4004775288286730e+01  3.4876428141526283e+01  3.6000695248572619e+01  3.6375860124801505e+01  3.6765117642900321e+01  3.8092198859838554e+01  4.0276831817639504e+01  4.1194851286915934e+01  4.0525354951134517e+01  4.0458780396782380e+01  5.2525381638736285e+01  5.9776225986211116e+01  8.4831149110336227e+01  8.7283632904441760e+01  8.7794120146691839e+01  8.4938613242398418e+01  8.7593970734105611e+01  4.9040796414390790e+01  8.4792342184443754e+01  8.6361994969245316e+01  7.3267496446136533e+01  7.2422214604759105e+01  5.9587294793441373e+01  5.9384511044149818e+01  8.6399100238366330e+01  5.2525818618736821e+01  5.2305559883442051e+01  8.4552180420842021e+01  8.5090443917836481e+01  4.9039802129382551e+01  8.3862921958723064e+01  8.6361922426628311e+01  8.5126700030659975e+01  8.4404980254909475e+01  8.6344543244747300e+01  8.4479305248407954e+01  8.6344212537499970e+01  4.9429494368207735e+01  6.7001542460087634e+01  7.5662368716586201e+01  5.1929575372180402e+01  3.6913714627513151e+01  5.4097203876833561e+01  7.4837930445357756e+01  6.1636584756127625e+01  6.4214488041687716e+01  4.1987434824368400e+01  4.3795753229017322e+01  7.5793253319045974e+01  4.6405442119618293e+01  8.1710143030514644e+01  6.7759335990309125e+01  5.5465235294862985e+01  5.6581603626557893e+01  6.9345211106154693e+01  3.3673882702459188e+01  7.7666810260641640e+01  6.1634633666967822e+01  7.1359848542232783e+01  5.2211449103832805e+01  3.7048360439219593e+01  4.7722406122502235e+01  4.5335757067080678e+01  5.7647060881978021e+01  4.3083173479793793e+01  8.0857190683837416e+01  3.6618961753068596e+01  7.5317875890871747e+01  6.5631223645681942e+01  6.9697917284658431e+01  5.0510339945190822e+01  7.2418427122246598e+01  6.1242774094403941e+01  6.8190987143410453e+01  6.4752071180001451e+01  5.5672858510650329e+01  3.8874031810715728e+01  5.9792254486781196e+01  7.9611434090775703e+01  7.4356662308183317e+01  8.5221751518269116e+01  7.1403496923383415e+01  6.9390905514389075e+01  5.6135256033301502e+01  3.9486099386816321e+01  4.1363694326999259e+01  5.9598963170902366e+01  7.8777556038093536e+01  6.0674817454764138e+01  3.5085110697027872e+01  3.9307542209246130e+01  8.0887610138842845e+01  4.5219033821517286e+01  3.1734522541051472e+01  6.7480930892123538e+01  7.5560240241340807e+01  6.5026449949472678e+01  5.1153698949775013e+01  8.5184692246232117e+01  3.8916816476938294e+01  5.0621598767141705e+01  5.9982776048406514e+01  6.5509337224659262e+01  5.6345934916702845e+01  4.7086607374039517e+01  4.3501440217451957e+01  5.7151915961771145e+01  4.8123272248693048e+01  4.7818717397522747e+01  4.4423778823359719e+01  4.9725921124356297e+01  8.4277877863770286e+01  7.8205519033791077e+01  5.2902695797200373e+01  8.2861631577197926e+01  7.5530565398336648e+01  7.4636672309317419e+01  8.0195052001760629e+01  6.2467779326224779e+01  5.8906371092794267e+01  6.6824742490704367e+01  7.2179666366266744e+01  5.8042043245515032e+01  7.8159915149462975e+01  5.1673290008741269e+01  6.5449824479722295e+01  3.2378563331304413e+01  4.9926645711965442e+01  6.8995501095732209e+01  7.7082736347553123e+01  6.4948214367838517e+01  7.0674926163295993e+01  6.2834171273464506e+01  7.1118322672111219e+01  3.5932699453431638e+01  5.3829398566775744e+01  5.3145281074182535e+01  7.9516678794957755e+01  6.7888471073188256e+01  3.7564267913629024e+01  7.9050271297889296e+01  6.3596094442101339e+01  8.4180003752187730e+01  3.3289193657459727e+01  8.4504305536796281e+01  8.4441265984606844e+01  5.5237946539146293e+01  5.0825639684419222e+01  8.4516506295655176e+01  8.5540967056328668e+01  8.2685487400956049e+01  8.5003268373400374e+01  7.1360769210698834e+01  3.6039324055897076e+01  8.0567932727457304e+01  7.5536985270642759e+01  5.6121448037100976e+01  5.0408500932779262e+01  4.6973594816350889e+01  8.5233555294144409e+01  8.4442995800132067e+01  5.8164085539602787e+01  8.5672237883667606e+01  8.3481436491024553e+01  8.3962317568031025e+01  8.5725540840251469e+01  5.9804963052392004e+01  4.8872806142390012e+01  7.0853478546856408e+01  3.4114694625050184e+01  4.8803604577298543e+01  3.6924710551682750e+01  6.8912306030740069e+01  8.7027997230027111e+01  6.6532312817453445e+01  7.2699108457920289e+01  8.3211031242842168e+01  6.0151562842640310e+01  3.1265819501696253e+01  7.1874204112165046e+01  3.9521021682072032e+01  5.2137710387331403e+01  8.4731998663123960e+01  8.2756573187783303e+01  6.1783182678599040e+01  8.7037064064975695e+01  4.3944788561599097e+01  8.5294228445459524e+01  6.3597210754219844e+01  3.2400031894012209e+01  3.6203442021396079e+01  3.7261799907270486e+01  7.2420604462349473e+01  8.1596476619878430e+01  8.0836090293997060e+01  6.8438887326380794e+01  8.4966762805963768e+01  5.9718525600058044e+01  4.8814391368024950e+01  4.8805963359695497e+01  3.2168672927422172e+01  8.4516049701384802e+01  8.4694092668534523e+01  8.4763485135509825e+01  7.5264914493467685e+01  8.1311022813036118e+01  8.4886689558242765e+01  8.3317590384953903e+01  6.6719537979696611e+01  8.7728862426868403e+01  8.7658926806742372e+01  6.1025492540391241e+01  3.5113342008748965e+01  6.0707556581896227e+01  8.1817859077161557e+01  5.5773242609273943e+01  6.4479232229477873e+01  8.7269900437719940e+01  6.1807797098841064e+01  7.3181627667333970e+01  4.0808726485273212e+01  5.6403622093722980e+01  5.5634236486204664e+01  5.7007447395411930e+01  8.5758195813433616e+01  5.0243966899473975e+01  5.1180664366156492e+01  4.9222815158557545e+01  5.1052320301586782e+01  4.7222604524609736e+01  3.2873798789769651e+01  3.0974946417440236e+01  5.2071429248935125e+01  5.4963275008326683e+01  7.5880164050438879e+01  7.5776710689557973e+01  8.7489335585420235e+01  6.6819676167232330e+01  6.4947859578425565e+01  6.0812853729185242e+01  6.0256632305650761e+01  6.0460815144333075e+01  6.0776067835952134e+01  6.0376186784568326e+01  6.0443453599838158e+01  6.2419127839992640e+01  6.0583397847576492e+01  6.1125153858691348e+01  6.4040416842746396e+01  6.2452829042266330e+01  5.8588603922070853e+01  6.0089225945244742e+01  4.4632811879633685e+01  4.6416826316877788e+01  4.4598274144845220e+01  4.2936908835977505e+01  4.3562974673783309e+01  4.1546157866740472e+01  4.2874250132825388e+01  4.2200655116892655e+01  3.8875152496284677e+01  3.7664291433277462e+01  3.3912462211119433e+01  3.4413720678600150e+01  3.4398193427119814e+01  3.5458219601890875e+01  3.4892665305794509e+01  3.6213439743958418e+01  3.6375696454828912e+01  3.5543566014111939e+01  3.6560829420834061e+01  3.6512608250486480e+01  3.7148739641459379e+01  3.6633138269597730e+01  3.7790813073326220e+01  4.0549945810174471e+01  3.8888398915994607e+01  4.8138628110719246e+01  4.6520077163413511e+01  4.7187141843869526e+01  5.0756227319244481e+01  6.8735037291668235e+01  6.7547408115155037e+01  6.6358055895727148e+01  6.7969082646006441e+01  7.3797520492062418e+01  7.6956399501221597e+01  7.5177814301586707e+01  7.6845409777879595e+01  5.4498539695173385e+01  5.0071717775030699e+01  5.0830210472097335e+01  5.2989331198811961e+01  3.7290698435345512e+01  3.8887004989709801e+01  3.6930670259010000e+01  3.7802975749458952e+01  3.7241209636812783e+01  3.6740788663911751e+01  5.5014166721660821e+01  5.7195091594655523e+01  5.2443120504616985e+01  5.5322711073192828e+01  5.1822290750237123e+01  7.5261060262980124e+01  7.2558137403883649e+01  6.1233765425605164e+01  6.0755166077851833e+01  6.3257306054485667e+01  5.9873608787657354e+01  6.3225276466560878e+01  6.2250266663036761e+01  6.3153031716105289e+01  6.6312767230669621e+01  6.4941490024171912e+01  3.8745354312089837e+01  4.0045725787505276e+01  4.1614296380309362e+01  4.0789898166709520e+01  4.3900610107030872e+01  4.3352593567170388e+01  4.7585627422886049e+01  4.0753957890397913e+01  4.1246069153356402e+01  4.5587904412684018e+01  4.6121833636344675e+01  7.3605967973746459e+01  7.7626086965421251e+01  7.5080037349446940e+01  7.8157945899807089e+01  8.0725007932145346e+01  7.0112004815734664e+01  6.6386106910282081e+01  6.9081079241208997e+01  6.7820322294623949e+01  5.3081984967659920e+01  5.6444040682791787e+01  5.6677300320645415e+01  5.3000873763856056e+01  7.2042915756714834e+01  6.9707623101181355e+01  6.9492082370922532e+01  6.7537176488027384e+01  3.5092339449988806e+01  3.3995612054211342e+01  6.1614085805622246e+01  6.0690767993381890e+01  5.9547044868545214e+01  7.1690484633407507e+01  6.9692489788418897e+01  7.3196807938863770e+01  6.9881147570713566e+01  5.4208765060912619e+01  5.0294319084747791e+01  5.0921524846227953e+01  5.2480870232510874e+01  5.0759763485245365e+01  5.2447904114366700e+01  3.7658002389451617e+01  3.6625069348729731e+01  3.7851481208850814e+01  3.6717521075656229e+01  3.7180874793498724e+01  3.7195570994339661e+01  4.6429260763978760e+01  4.9332773522232117e+01  4.8553531773977724e+01  4.9389708511409012e+01  4.1327530032430850e+01  4.6603880782576795e+01  4.6523426036470887e+01  4.7802315928840024e+01  4.2035444769380824e+01  4.4540823686622488e+01  5.7632440158549137e+01  5.8911483654909340e+01  5.6685442115114540e+01  5.6475687778105872e+01  4.0969072573653818e+01  4.4377677669938251e+01  4.0510061081467015e+01  4.5131990409252666e+01  3.7849382801620131e+01  3.4742300071567804e+01  3.7804670781782804e+01  3.6290911076919123e+01  3.6324825527565437e+01  3.5454439329825220e+01  3.7064473202429163e+01  6.5420484369727902e+01  6.4129416815149540e+01  6.6924039001123219e+01  6.6242768438337166e+01  7.0225730634957159e+01  4.8861713019585522e+01  4.9383564307538137e+01  7.0601838938425985e+01  6.3379205699275751e+01  5.9962962135298739e+01  5.9363397529585221e+01  6.2422027845037256e+01  6.9623378616499792e+01  6.7556435598702805e+01  6.3553586787631701e+01  6.3350624972518411e+01  5.7530779314112522e+01  5.2713652957815562e+01  3.9471442195672907e+01  3.8815210145438577e+01  3.7887067405376662e+01  5.9125255313567102e+01  6.1347846988918420e+01  7.6910351374108060e+01  7.8816552989574532e+01  7.2813565436189265e+01  7.6267654094591435e+01  7.3072043723608729e+01  7.3433528325802371e+01  6.8493595527870156e+01  6.7660998603812956e+01  5.6356076649293364e+01  3.8439080492787660e+01  5.8373986570950450e+01  5.8784252496746170e+01  3.5234072914234865e+01  3.6450383582423889e+01  3.5194732895217136e+01  4.2485893119954866e+01  4.4887061053169788e+01  5.3909969469460997e+01  5.0326841663007372e+01  5.1100699334109777e+01  5.0371952599519815e+01  5.9702351603443091e+01  5.9982312940565627e+01  6.0523186495001156e+01  6.0659588937084273e+01  6.5049342787864603e+01  6.4507068162010114e+01  5.4822399351863417e+01  5.0063164046593769e+01  4.8946459566554260e+01  5.0713903268630695e+01  4.8855430006178082e+01  4.5780743488339041e+01  4.7041023448103608e+01  5.5685792568622084e+01  5.2483448392021685e+01  7.6327783701253111e+01  5.4706860529297252e+01  5.1541897385663049e+01  6.3804168471710575e+01  6.6703344982573611e+01  6.8983356595911644e+01  6.7308959660211684e+01  3.7247180768232177e+01  3.4061493739672450e+01  3.6769120866347535e+01  6.0002097486695085e+01  3.6261309321852558e+01  6.0674501030560585e+01  4.1853768706345136e+01  3.8101064872110818e+01  6.1408809099698736e+01  4.9411500043906315e+01  6.8381407843113863e+01  3.7138398229973916e+01  3.7470356718859982e+01  3.6806973156745421e+01  3.6966229224730647e+01  3.6748315533658797e+01  6.2754518784943677e+01  4.3847128542029182e+01  4.5862270219046842e+01  4.5003491865507868e+01  7.6286588113859935e+01  5.9056236478456341e+01  5.4256805769965112e+01  5.4105990658905689e+01  5.4797487118874621e+01  3.4968284971327961e+01  6.9887727063619351e+01  7.0447037192063661e+01  3.7561452870370410e+01  3.7200539878207557e+01  4.7804244463426137e+01  4.8468086229917589e+01  4.3206913987772040e+01  5.7452540127327978e+01  6.1107156910466564e+01  6.2272308198941417e+01  6.0180409023549196e+01  6.2839172844441840e+01  3.9850408168313862e+01  3.8328288850116181e+01  3.8740519089294295e+01  3.8365947188444110e+01  6.9908202980927740e+01  3.8525213291347292e+01  4.0070758923884952e+01  4.0865931612601095e+01  5.1710784601428038e+01  5.2040420941611892e+01  5.2391648900988905e+01  5.0650431364238514e+01  4.0097872766723050e+01  3.8189644095086358e+01  3.9291868769836263e+01  5.0071004030774517e+01  7.4092447986112504e+01  7.4805875120934815e+01  7.5681155190276527e+01  6.2265293584248717e+01  6.7482080685982453e+01  5.3048476976046651e+01  5.0383715385985312e+01  4.9470693005230459e+01  5.0818267914726910e+01  6.5857407793667406e+01  6.2523764920785261e+01  6.3261655793237367e+01  3.6735363104224611e+01  3.6454221420547029e+01  3.6122074453063512e+01  5.2941098527054592e+01  5.5248913922975539e+01  5.5228845804531112e+01  5.2473188382232166e+01  6.7363787971004172e+01  3.6350781684319102e+01  3.6831493514646205e+01  3.6674650891384296e+01  6.0529298813370538e+01  6.0264554316482212e+01  6.0336217022800952e+01  4.3054652392913113e+01  4.4215642435335560e+01  4.4821475721517260e+01  3.7462815539572894e+01  3.5354382293478871e+01  3.5817592361013148e+01  6.1359234124315776e+01  6.2790207927768222e+01  6.1975095004132044e+01  6.1168968965802293e+01  6.1181061671732643e+01  6.1571503245868030e+01  6.0859429097006426e+01  4.5103215328263303e+01  3.5900553496774386e+01  4.8782952643702473e+01  6.9245294004563249e+01  5.1787802318046964e+01  5.1232358899466945e+01  3.6984546979054549e+01  3.7831078385244915e+01  3.7974660001224770e+01  3.9107642067835521e+01  3.8489279340895180e+01  3.7434473225658365e+01  5.2096117670463919e+01  5.1308301718682507e+01  5.1043658737995578e+01  6.2163743185312512e+01  6.3012665965245773e+01  3.8001876443169387e+01  3.8714766313434275e+01  4.2007590429921542e+01  4.2344494180062163e+01  4.6960949410029244e+01  4.0735232140085728e+01  4.0843974754827464e+01  4.0210711261476376e+01  4.7895296810513628e+01  7.5940771462218166e+01  5.3467834276675354e+01  5.5140687732960025e+01  5.3789620217696857e+01  6.8356280626353765e+01  6.8959316171192683e+01  6.7766381990656470e+01  5.1633979186119539e+01  5.3595051879754010e+01  5.1897610718168416e+01  4.5129406969311532e+01  5.6621521981001415e+01  5.5458223123506492e+01  3.8651261002048635e+01  3.7864925305614953e+01  6.6267619735286274e+01  6.6096672189239271e+01  6.6878970255040286e+01  3.8261904047155753e+01  3.6397405059463857e+01  </DataArray> 
</PointData> 
</Piece>
</UnstructuredGrid>
</VTKFile>