<?xml version="1.0"?>
<VTKFile type="UnstructuredGrid"  version="0.1"  >
<UnstructuredGrid>
<Piece  NumberOfPoints="784" NumberOfCells="1320">
<Points>
<DataArray  type="Float64"  NumberOfComponents="3"  format="ascii">266913.131276 586512.314988 0  266738.13716 587762.325998 0  266363.132677 589012.328643 0  266175.641078 590169.601714 0  265666.575631 591040.7699119999 0  264875.64001 591687.766419 0  264900.636161 591845.049083 0  266088.14152 592012.3229499999 0  265561.959259 592661.17101 0  264288.136855 593037.368683 0  263865.194033 593999.8486949999 0  263850.641856 593236.729596 0  263625.634872 592756.525286 0  262689.574249 593299.848918 0  262475.636737 594003.0907310001 0  261934.554452 594340.929792 0  261725.631329 594932.094409 0  261729.256443 595728.498809 0  262138.136044 595012.330523 0  262288.141035 596262.333669 0  261488.994028 597511.480605 0  261234.15567 598316.338928 0  260815.635063 599014.863821 0  261400.643658 599389.7367680001 0  261322.963374 600022.185065 0  261119.455248 600931.061306 0  261607.436504 601293.0629359999 0  260807.446929 602089.899812 0  260025.642878 602988.868697 0  259613.135827 603937.3854499999 0  259050.643123 604100.987861 0  258411.880065 603988.6335979999 0  257764.357469 604449.872569 0  257971.239668 605320.429125 0  258041.396867 605740.635381 0  257188.143339 606987.394312 0  256038.141198 608112.3554550001 0  254788.141633 609087.4026939999 0  253588.140656 609812.362881 0  252338.135706 609737.4048949999 0  251088.138116 609787.404055 0  249963.12851 610287.399466 0  248613.130524 610462.365857 0  247363.132198 610687.407659 0  246113.130532 610837.411551 0  245832.347438 610918.209918 0  245016.946433 610958.5639439999 0  244313.129646 610762.372259 0  244400.622144 611378.093316 0  243939.669208 612460.8930899999 0  242960.649733 611984.892792 0  242170.381438 611919.647351 0  241888.122919 611112.375656 0  241393.380757 610467.6456149999 0  240594.157528 611306.369822 0  240525.621947 610804.648112 0  240363.123632 610512.3745050001 0  239113.123247 610262.374278 0  239813.12126 609037.412459 0  240588.122952 607812.368199 0  241013.119545 606625.9534560001 0  241454.373249 605724.888025 0  242238.120107 604687.3993 0  243088.121248 603462.362766 0  242860.319451 603007.3932640001 0  241563.116617 603812.361344 0  241778.400913 604327.642217 0  242059.837234 604824.879102 0  241475.620201 604923.2402390001 0  241462.182234 605449.881372 0  240906.219606 605674.888222 0  240241.856192 606891.125066 0  239891.734044 607841.012479 0  239048.653431 608724.889805 0  238118.054545 608974.895967 0  238888.111029 607337.406468 0  239738.119992 606212.362729 0  240288.12044 605687.4075229999 0  240380.212307 604729.521696 0  239347.309632 604603.204501 0  238888.112036 604387.408787 0  237913.11173 604687.401386 0  236784.172023 604499.882783 0  236883.408793 603717.08334 0  236154.933927 603595.565605 0  235688.103943 602912.369264 0  235763.108033 601662.366516 0  236363.110805 600412.35884 0  236738.107995 599162.356577 0  236525.607944 598482.2412899999 0  236138.109208 599362.357613 0  235725.063048 600325.4466510001 0  235091.948926 601408.5220979999 0  235188.10921 600312.366344 0  234375.602405 600833.9674270001 0  234663.109308 599912.358011 0  234138.105122 600062.365644 0  233955.307245 599029.561063 0  233338.103791 598387.401556 0  233988.09795 597862.356384 0  235138.101489 596637.3947750001 0  235563.1039 595387.392428 0  236513.103639 594212.356312 0  237163.10684 592987.3929869999 0  238313.103031 591862.3515540001 0  239513.107028 590812.3512640001 0  240638.102135 589787.387271 0  241463.109549 588587.378486 0  242294.489816 587443.735215 0  242913.101099 586512.341804 0  243544.066915 585474.859604 0  243040.448415 585184.975583 0  242438.10214 585337.38015 0  241313.102353 586562.339499 0  240538.107104 587787.382449 0  240114.641085 588588.939407 0  239388.100256 589437.382238 0  238188.104456 590512.346358 0  236938.100507 591362.349798 0  235813.10453 592537.396388 0  234864.502938 593178.7753880001 0  234463.097651 592862.357267 0  235113.0965 591662.3545979999 0  235713.101522 590412.346099 0  235777.688431 589976.7582779999 0  234943.583145 590706.265132 0  234462.482256 591490.2841159999 0  233801.497784 592112.940187 0  233388.099101 591787.394208 0  234013.093099 590437.393065 0  234776.217248 587148.7548100001 0  235163.093726 586562.3486189999 0  235313.098918 585483.229012 0  235250.59732 584662.298153 0  235588.093896 583337.379493 0  236329.432041 582199.858992 0  237188.096234 581462.3349939999 0  237463.088521 580212.335511 0  238350.592558 579057.652616 0  238591.415797 578574.847681 0  238313.094106 577612.328905 0  239229.696732 577695.769664 0  240195.161018 577513.008613 0  240614.996733 577149.8518770001 0  240663.091715 577412.332622 0  240288.092486 578662.334085 0  239942.357258 579508.095811 0  240438.100019 580212.3334220001 0  241338.095553 580387.375355 0  241238.099828 579137.369157 0  241788.097003 577887.370889 0  241983.554649 577241.9220939999 0  242054.178239 576927.8105029999 0  242588.100699 575737.366175 0  243149.324833 574898.583978 0  243695.278626 573919.517981 0  244268.494418 573724.8454239999 0  244995.134063 573930.2767810001 0  245417.314363 573391.601898 0  243450.599125 571859.479773 0  245776.797908 572599.8353060001 0  246779.639852 572973.285167 0  248034.741935 573186.082054 0  249413.10651 573162.3205520001 0  250496.922226 573271.1521899999 0  251613.105126 573237.3551319999 0  252421.824577 572846.032906 0  253256.245022 572580.4733130001 0  253739.471933 571960.9547369999 0  254174.511864 572149.8346569999 0  254484.944333 571684.194807 0  254384.108649 570891.346712 0  254344.002752 570218.26407 0  255025.609604 570829.0294979999 0  255715.005913 570489.264586 0  256218.846343 570774.828355 0  256834.349083 570508.5908 0  257390.092515 570014.308325 0  257624.431042 568493.478911 0  259355.811717 569380.021819 0  260033.372814 569617.066669 0  262679.741751 570320.699974 0  263289.115756 569524.817815 0  263463.114338 570512.301061 0  264638.198419 570687.3443539999 0  265058.220065 571334.378467 0  265447.561421 572077.90485 0  265488.125257 573137.3446020001 0  265131.937715 573963.293593 0  265432.389648 575093.068786 0  265638.122314 576338.029955 0  265750.630817 577371.8281319999 0  265738.570663 578561.9098850001 0  265875.630866 579139.630549 0  266213.129247 579862.311842 0  266563.130472 581112.314509 0  266238.135356 582362.310259 0  265938.12863 583612.320897 0  265738.131342 584762.3210189999 0  266875.638633 585365.358768 0  264018.7239399826 593650.4646671159 0  262236.3944351029 595831.1252656333 0  241846.246678 605206.1436625 0  240200.622106 608424.8903290001 0  240943.4862974102 610939.7757535663 0  236550.6094 599787.3577085 0  238528.1212051503 608102.9081793013 0  244413.4891967989 572609.5960859474 0  236382.0474488751 598808.3067022427 0  235369.601910944 600933.5380148316 0  235413.099011 591037.3503485 0  235446.2251831186 590266.6553871984 0  240475.5921005 578037.3333535 0  240413.173949154 577324.4280286073 0  240574.037899 606283.0066440001 0  263857.9179445 593618.2891454998 0  264153.4303974913 593343.916675058 0  242042.1833925 604946.7714812499 0  241650.3099635 605465.51584375 0  244613.6985165 572229.6575395 0  236631.8579695 598822.2989335 0  235140.029068 600860.444221 0  241767.7287175 604874.0596705 0  242140.15174975 604817.0853906251 0  234781.8558075 600573.1668855001 0  242091.167571125 604881.9284359375 0  234519.3558565 600373.162719 0  254604.8337712102 583989.0014118921 0  250699.5846056537 594617.3297041012 0  250540.4796469513 602258.2940568649 0  248483.7490186612 580334.7345534252 0  258549.2190328319 577893.951823392 0  257067.0067473103 590016.5327808241 0  243285.0921999099 596333.923437875 0  248333.1386145258 589098.0389905117 0  256142.8445072741 595883.3911551933 0  260245.1368072523 583315.2785712298 0  253472.3380211276 578932.2908163272 0  246432.3347504817 599884.5019511909 0  261555.9240922556 588041.186709004 0  247293.1100123104 605823.8307887657 0  246458.2798550911 593168.8646574575 0  252840.0183145193 588226.5564648228 0  249828.2874404451 584740.7888937403 0  255409.5660975206 600458.8956828594 0  260819.9733392385 574219.403683011 0  252584.2262054711 605722.6603825617 0  254049.8830611471 592547.4852571967 0  250015.4356193061 598425.2225922942 0  245872.072249477 577604.9761853142 0  262002.1583249522 579753.4663046852 0  257732.6630933878 586227.970805314 0  250242.5556457866 577017.3316409125 0  244921.6453001869 581816.6358421432 0  256520.3890639471 580904.824006648 0  240779.0970645865 599524.6679555867 0  257100.1829219198 574459.5922545703 0  239912.2630002034 595231.1172704464 0  244703.0875078634 590068.6945953515 0  242549.5490268674 592874.3693043783 0  251586.0465921376 581796.2215047925 0  246643.189997516 596527.447801719 0  251049.7658069622 591057.6752245198 0  253014.5731561695 596998.6601086652 0  238680.2197353724 584542.2309791476 0  259715.365803504 591937.1938619445 0  254097.157218761 575731.4494927844 0  246806.6408589328 586139.0877599345 0  246136.1179750556 602959.471719323 0  253520.7033332401 602835.180253843 0  244125.4295793909 607538.9817227355 0  252546.8895354472 599881.3279113505 0  258289.0983523553 600397.640191779 0  247518.7952199645 583037.3718217331 0  263140.3959879661 582529.2228421422 0  262894.8586894067 585442.3590432997 0  256968.6320599076 593040.7691844478 0  243573.0187527719 600218.2795730785 0  258888.5766127351 595139.7745218446 0  262588.7569809347 576734.8569237856 0  259318.4257992262 580601.2540325444 0  249963.3812725965 607065.7205847671 0  257494.5307999607 583482.5893534871 0  258906.4757205145 572278.8089438241 0  237751.446593475 587300.5805003279 0  255142.4708720699 604956.7580261135 0  258485.4978753244 597756.9250383095 0  255516.7820591553 587791.39641967 0  239758.4692108706 601926.8203218657 0  255873.0092222999 577739.5085867504
[...]
<PointData  Scalars="f_49376-1"> 
<DataArray  type="Float64"  Name="f_49376-1"  format="ascii">4.0351097138289518e+01  4.1699179994404723e+01  4.3734625237625039e+01  4.5783316581794111e+01  4.7327028089711249e+01  4.9133707853121273e+01  4.9751100278362514e+01  4.9656747551767808e+01  5.0117404952052674e+01  5.1624108876118946e+01  5.2719212565125012e+01  5.2115650418765902e+01  5.1704513036514619e+01  5.3705142544617672e+01  5.4963130703504021e+01  5.6022181225475144e+01  5.7295079939392728e+01  5.8475594344334723e+01  5.7794121018731360e+01  5.8882002755534828e+01  6.1553753080210967e+01  6.3243853549751471e+01  6.5015207276302803e+01  6.5808223728697243e+01  6.6441344794563079e+01  6.8017672452294690e+01  6.8380839326933781e+01  6.9435669888767293e+01  7.1017357943496009e+01  7.1935579606387435e+01  7.2121077830454666e+01  7.2391951942254451e+01  7.3176570021702062e+01  7.3920649841519278e+01  7.4082010193101311e+01  7.5085175512549739e+01  7.6427127827284906e+01  7.7852871288554738e+01  7.9048418102340065e+01  7.9827695002798890e+01  8.0981236105039812e+01  8.2117215177809769e+01  8.3114256472384056e+01  8.3952938534907489e+01  8.4707933370911803e+01  8.4857707748441854e+01  8.5202085717753249e+01  8.5620230000389171e+01  8.6032475726942735e+01  8.6350921413929044e+01  8.6472225865468886e+01  8.6588288306631057e+01  8.6494460449942324e+01  8.6504815820183509e+01  8.6884700634645611e+01  8.6831331188009443e+01  8.6804168482962950e+01  8.6995114382548678e+01  8.6527780533306256e+01  8.5739226889979236e+01  8.4961494372334897e+01  8.4221061760125380e+01  8.3176045680258639e+01  8.1559100292749960e+01  8.1289147964552555e+01  8.3195924565477455e+01  8.3693940595734986e+01  8.3781719548724325e+01  8.4032855994512531e+01  8.4334917275414298e+01  8.4671143271431035e+01  8.5660534994622665e+01  8.6131319615723157e+01  8.6608505058747284e+01  8.6771380426443386e+01  8.6198910231337763e+01  8.5501745182218457e+01  8.4959039021125733e+01  8.4368743322417330e+01  8.4774951640593144e+01  8.5065426178526479e+01  8.5527442420144581e+01  8.5718839154948640e+01  8.5655540452585896e+01  8.5758823493008563e+01  8.5746756767519273e+01  8.5416585093001046e+01  8.4518399128940487e+01  8.3224913558976596e+01  8.3050437806850326e+01  8.4416708220337952e+01  8.5154261037001518e+01  8.5462555378047298e+01  8.5275771636394438e+01  8.5528242541236793e+01  8.5314453882528056e+01  8.5384721621567110e+01  8.5189476052833172e+01  8.5120041848899533e+01  8.4767495128434078e+01  8.2517827388393869e+01  8.0068587576574316e+01  7.6665450474426947e+01  7.3456081865288255e+01  7.0247671449032424e+01  6.8040922200080487e+01  6.6544511000129702e+01  6.5185410640225342e+01  6.3764111918607234e+01  6.2473797129294937e+01  6.0984929957831959e+01  6.1028466523074655e+01  6.1865196097929690e+01  6.3815020843834404e+01  6.5224431587887963e+01  6.5954268636304590e+01  6.6828938791493243e+01  6.8421539776701138e+01  7.0809673747941233e+01  7.4528884166781552e+01  7.6242290766307036e+01  7.6273257709804923e+01  7.3961308174587955e+01  7.0938303831516038e+01  7.0471691896485012e+01  7.2991681618882339e+01  7.5073750728211948e+01  7.6155459707828115e+01  7.6210923957507958e+01  7.3602725852398308e+01  6.8530755812969318e+01  6.7825699484554477e+01  6.6884167135177975e+01  6.6402014761861395e+01  6.5439855037258980e+01  6.4143484771044953e+01  6.2799220211096483e+01  6.1566468302265655e+01  6.0256776404407546e+01  5.9683277892465597e+01  5.9355373914802009e+01  5.9042436324546117e+01  5.8276559422092575e+01  5.8037708101081982e+01  5.8066914620148317e+01  5.8903899266318660e+01  5.9703883249886033e+01  5.9841284708521343e+01  5.9021285159261822e+01  5.8064750082014740e+01  5.6831880329350533e+01  5.6152272487248958e+01  5.5839171654756782e+01  5.4296611527743465e+01  5.2803110076651500e+01  5.1196218222864118e+01  5.0672694514815682e+01  4.9638963853847322e+01  4.8277690089821142e+01  4.8859081666181204e+01  4.7674207388434588e+01  4.6664816045589127e+01  4.5020668252579043e+01  4.3026261747998788e+01  4.1697470340819812e+01  4.0259431976499094e+01  3.9019034056239406e+01  3.7785938049665781e+01  3.6952371152066220e+01  3.6526488009084659e+01  3.5510257418866260e+01  3.4707951755629644e+01  3.4485056870935075e+01  3.4397513551153445e+01  3.3613862882649158e+01  3.3196268447751812e+01  3.2221396711209891e+01  3.2496726810195433e+01  5.6266277285329323e+01  4.3659024915481872e+01  3.5064303867258772e+01  3.2409027164390899e+01  3.1715559741459899e+01  3.3567176164025483e+01  3.1586252694991636e+01  3.0873921570076522e+01  3.0848139262829257e+01  3.1346519480514004e+01  3.1970249426993057e+01  3.2660195036320495e+01  3.3476406655577229e+01  3.4456986327609563e+01  3.5793691977183229e+01  3.6044265883369789e+01  3.6120871443859649e+01  3.7299470397363535e+01  3.9701987169882599e+01  4.0571759778629627e+01  3.9695550543950930e+01  3.9670060474344702e+01  5.2560644169794720e+01  5.8449861598299812e+01  8.3720746581875034e+01  8.6157955953003409e+01  8.6820528685739035e+01  8.3899542294745842e+01  8.6562133027538877e+01  4.8477582356351448e+01  8.3738673101951605e+01  8.5394885695895553e+01  7.2384768128045962e+01  7.1425850130140105e+01  5.8411813692117370e+01  5.8088474339430675e+01  8.5240681776496828e+01  5.2561705887538579e+01  5.2204751982124847e+01  8.3454065990143746e+01  8.3981085132448470e+01  4.8472817020684502e+01  8.2931866450796576e+01  8.5393803890723390e+01  8.3831619333518404e+01  8.3317647851518402e+01  8.5460302767969964e+01  8.3386267810431463e+01  8.5460561333140063e+01  4.9308531988874051e+01  6.6541755961821394e+01  7.4710741021977100e+01  5.2355998815245293e+01  3.8366469132803708e+01  5.5175471172546821e+01  7.3643025088715291e+01  6.1048510144897818e+01  6.3348874148793342e+01  4.1632769203953849e+01  4.5438872132143679e+01  7.5465061410831851e+01  4.5712885339692889e+01  8.0572717040523045e+01  6.7252501972744810e+01  5.6903519873734616e+01  5.6169491704529470e+01  6.9408070806710057e+01  3.3440924355789370e+01  7.6568245631151754e+01  6.1126831270820212e+01  7.1515753310255192e+01  5.2095359405385160e+01  3.7772278382572956e+01  4.8449083667337568e+01  4.5561816212647734e+01  5.7348443076107820e+01  4.3137251383553348e+01  7.9652770377270471e+01  3.6366004238264978e+01  7.4076188566645797e+01  6.5795487005074790e+01  6.8533031291878075e+01  4.9873670159733116e+01  7.1509289732903468e+01  6.2094421732401912e+01  6.7813978424556069e+01  6.4152289068501574e+01  5.5086805073854308e+01  3.9617525039155638e+01  5.8920213337832337e+01  7.8640127007026805e+01  7.3393840679830276e+01  8.4126290235614718e+01  7.1000757416756613e+01  6.8566569550405077e+01  5.5423499934716240e+01  3.9386169626195851e+01  4.0650408816004408e+01  5.9401650338345839e+01  7.7698005931751467e+01  5.9738083621967498e+01  3.4804538235911586e+01  3.9943068057791685e+01  7.9822308074501294e+01  4.4937433496008403e+01  3.0904961502783848e+01  6.6503616327164778e+01  7.4503591872572471e+01  6.4116670686834780e+01  5.3524638684713260e+01  8.4591057694217156e+01  4.0388876093740343e+01  4.9792699811757558e+01  6.0152966676257584e+01  6.5020572446385316e+01  5.5944256490630913e+01  4.6778623977834258e+01  4.2785222173764957e+01  5.7781238222078422e+01  4.8052220539897981e+01  4.7531400528962259e+01  4.3754208710399276e+01  4.9792842249414655e+01  8.3156510789887506e+01  7.7094612798104151e+01  5.2256578035330605e+01  8.1772689642847098e+01  7.4476955578169438e+01  7.4987724662792445e+01  7.9109905880767840e+01  6.1805623096982551e+01  5.8127865384669747e+01  6.6965611817663728e+01  7.1196815006988203e+01  5.7554011410994406e+01  7.7232597990632541e+01  5.2933000274651583e+01  6.4592807569097232e+01  3.1773616375952638e+01  5.0995212378506707e+01  6.8310004111358481e+01  7.5843207485411924e+01  6.5536430503746757e+01  6.9457733763065477e+01  6.1970190184884096e+01  6.9890262550597043e+01  3.6549382538690978e+01  5.5313801212022504e+01  5.2477690252566582e+01  7.8445261109451749e+01  6.7962283687149053e+01  3.7627944654972630e+01  7.7933355316588603e+01  6.2989012841711663e+01  8.3255278355538593e+01  3.2877450932143454e+01  8.3360774178564043e+01  8.3312074841385794e+01  5.4640478601236460e+01  5.0143990855595590e+01  8.3406790505523233e+01  8.4444765647850303e+01  8.1576820069977558e+01  8.4020620277428876e+01  7.0613946439468862e+01  3.5721747375137433e+01  7.9507886851936703e+01  7.4466411035295465e+01  5.5499636505726976e+01  4.9728547015544066e+01  4.6146387408508488e+01  8.4081211878879586e+01  8.3348678779851511e+01  5.7302872933502144e+01  8.4606167975180739e+01  8.2469902021258548e+01  8.2894012056495896e+01  8.4698801654697917e+01  5.9487130978968402e+01  4.8277899297850190e+01  6.9732974387759171e+01  3.3702958942836283e+01  4.7990715287554899e+01  3.7413509142926422e+01  6.7865671197227940e+01  8.5870883807106054e+01  6.5605959549178451e+01  7.1944019236605243e+01  8.2239312558364148e+01  6.0880231045502569e+01  2.9702790843263223e+01  7.0954454166167253e+01  3.9554393453942950e+01  5.1408303711157153e+01  8.3708547526808772e+01  8.1783287673896069e+01  6.0819648937628678e+01  8.5881882357455964e+01  4.3997970384722500e+01  8.4271811931040261e+01  6.2695556083864986e+01  3.1947527526045718e+01  3.5864575650089328e+01  3.7159964012806086e+01  7.1591684446924233e+01  8.0582611722892423e+01  7.9732471494321601e+01  6.7558107627460714e+01  8.3837081892201525e+01  5.8822420476682026e+01  4.8190011468507009e+01  4.8124605321790192e+01  3.1904470946496243e+01  8.3419153305058060e+01  8.3588117924549806e+01  8.3647601350205477e+01  7.4171557936008966e+01  8.0263433383083850e+01  8.3797820978188071e+01  8.2256091367972587e+01  6.5812192542753067e+01  8.6705835245084458e+01  8.6573598808281204e+01  6.0444350852858946e+01  3.5033228112867356e+01  5.9835469018792821e+01  8.0736708061519721e+01  5.4965770689616164e+01  6.3621638041706767e+01  8.6154887822811801e+01  6.2328205252928981e+01  7.2193786700237879e+01  4.0334810641292876e+01  5.5844374885372446e+01  5.5116951688104862e+01  5.6378627307299276e+01  8.4738129502915825e+01  4.9561843118205424e+01  5.0691683690543137e+01  4.8515828252444372e+01  5.0496779784572297e+01  4.6556420315790085e+01  3.2564123207465641e+01  3.0538223657023657e+01  5.1289932354027826e+01  5.4331123027699618e+01  7.5639468614380945e+01  7.5495714538524425e+01  8.6373715247419966e+01  6.5931072191881483e+01  6.4086479883151029e+01  5.9996012340758583e+01  5.9678181379993298e+01  6.0265059592258375e+01  6.1408043659322722e+01  6.0366856236322207e+01  6.1061113874913609e+01  6.2897927110905023e+01  6.1387776131603246e+01  6.2149637630378130e+01  6.3953139967155671e+01  6.3056257840891064e+01  5.8016539348165246e+01  5.9567772381981207e+01  4.4013612971640384e+01  4.6023193186018432e+01  4.4279770039058150e+01  4.2364724990370540e+01  4.3291768185472861e+01  4.1023973523407193e+01  4.2645108460799882e+01  4.1955248055755774e+01  3.8630035810810440e+01  3.7443485803237039e+01  3.3480621189468529e+01  3.3925596675836289e+01  3.4047149500498563e+01  3.5204853560462503e+01  3.4699519861077334e+01  3.5974856489814513e+01  3.6481273630077666e+01  3.5596953567293916e+01  3.6063520225715166e+01  3.6536808392151322e+01  3.6864001209156456e+01  3.6451187150220370e+01  3.7339325651641225e+01  4.0690325192953992e+01  3.8656379155269427e+01  4.9567652475456143e+01  4.6141537589049520e+01  4.7262682545121827e+01  5.1250867859436838e+01  6.9409055947229987e+01  6.7272227582471274e+01  6.5734198573128097e+01  6.7537697179658934e+01  7.2925635061612596e+01  7.5905833551022170e+01  7.4660706015683502e+01  7.5959151240565646e+01  5.4784351328350958e+01  5.0048000305118350e+01  5.2133460802932660e+01  5.4683036099678255e+01  3.8158227652617128e+01  3.9810754827212946e+01  3.7409417889081176e+01  3.8833769349515379e+01  3.8615777614248628e+01  3.8096094532933598e+01  5.4871001886464803e+01  5.8271705469741143e+01  5.4190903004896938e+01  5.6528105430848754e+01  5.2500185709543395e+01  7.4451889341114565e+01  7.1921729850451257e+01  6.1840912194879976e+01  5.9920467096658967e+01  6.3207992762766295e+01  5.9317144510846681e+01  6.2794059872130177e+01  6.1446873801684880e+01  6.2411438055597898e+01  6.5663039276823156e+01  6.4035550496831476e+01  3.9568051557645653e+01  4.0030204276245009e+01  4.1025301196550814e+01  4.0963820057175390e+01  4.4695227724492916e+01  4.4162461743129874e+01  4.7900763360365900e+01  4.2152795663115640e+01  4.2659683095436975e+01  4.6131853396071087e+01  4.7103060036764624e+01  7.3741803291718000e+01  7.7098387494758214e+01  7.5630798546673418e+01  7.7303097849164701e+01  7.9640269385675083e+01  6.9070882122959375e+01  6.6755086039126724e+01  6.8187891014596474e+01  6.7887438407020625e+01  5.5305879499508947e+01  5.7918667690005023e+01  5.7004404047784533e+01  5.4699975608027806e+01  7.1539351587077007e+01  6.9690264011223618e+01  6.8995424463856168e+01  6.7865528982299253e+01  3.4884870453206425e+01  3.3455303214801347e+01  6.1159414107200845e+01  6.0827450467748363e+01  5.9425548400183843e+01  7.1413048772693941e+01  6.9862020543564981e+01  7.3131414376999444e+01  7.0258622962421825e+01  5.4118098033359040e+01  5.0014539180524103e+01  5.1427970016417731e+01  5.2893207155508087e+01  5.0237926233636244e+01  5.1834919294926564e+01  3.8390887886356474e+01  3.6837857876767913e+01  3.8835097104516741e+01  3.7172950737334588e+01  3.7710939696750920e+01  3.7834987224565758e+01  4.6725525815305126e+01  5.1283931232327944e+01  4.9061734570138753e+01  5.1654599422537736e+01  4.2171325399058453e+01  4.6763790193610355e+01  4.6517089484283488e+01  4.8038891897500584e+01  4.2470380902208191e+01  4.4750251714522520e+01  5.8141318103700975e+01  5.8513059826549217e+01  5.6355135596794213e+01  5.7786476527633674e+01  4.1307240115707032e+01  4.3999992469501578e+01  4.1619966584725482e+01  4.5039746470861999e+01  3.8317761958918311e+01  3.4390880907022357e+01  3.8417253679663673e+01  3.6354311536111773e+01  3.6032081042739975e+01  3.5102300161249872e+01  3.7021494339894105e+01  6.6675558812898785e+01  6.3350423108352160e+01  6.7697396665932786e+01  6.5655911750540852e+01  6.9195095492739625e+01  4.8405122141350162e+01  4.9026908266977635e+01  6.9712170151157096e+01  6.3774220978839651e+01  5.9971690547030093e+01  5.9712892888844031e+01  6.2428926935343888e+01  6.9510769276550562e+01  6.7390401961194556e+01  6.3034267854874621e+01  6.3255098739559678e+01  5.7008370283224515e+01  5.2241527767801692e+01  4.0944332997178947e+01  3.9032949147700648e+01  3.7934318526296259e+01  5.8241127518843783e+01  6.0476782598446199e+01  7.6793345089723616e+01  7.7924944457094341e+01  7.2146036854445683e+01  7.5185592744595198e+01  7.2221606879611755e+01  7.2753983481151820e+01  6.8655938293429244e+01  6.7272759219414880e+01  5.8996109559915709e+01  3.8502970780341428e+01  5.9359030852444093e+01  5.8002987506675588e+01  3.5146121559850535e+01  3.6875629708441672e+01  3.5033722717067668e+01  4.2299414159488634e+01  4.4458357012785001e+01  5.5564532857488153e+01  5.2069414794177490e+01  5.3350118218654366e+01  4.9721164158945065e+01  5.9808566050292214e+01  6.0511497810564293e+01  6.0317549315019157e+01  6.1263137320608656e+01  6.4681825060077017e+01  6.4217004792764882e+01  5.4969734531631566e+01  4.9450886793379937e+01  4.9322354336442046e+01  5.0286649843190112e+01  4.8900096443200084e+01  4.5718341865216594e+01  4.6609530976987067e+01  5.5414995019977951e+01  5.2468141107176343e+01  7.6025306305977878e+01  5.5230277797739674e+01  5.2723212969769904e+01  6.3342093173540206e+01  6.8235755893226440e+01  6.8124983118575983e+01  6.6814756467220747e+01  3.7553307361632541e+01  3.3698163201863125e+01  3.6590147475038499e+01  6.0175677830486691e+01  3.6753377582745578e+01  6.1638420213849450e+01  4.1908490117092171e+01  3.8002560741652459e+01  6.1376502782845492e+01  5.0571215471715590e+01  6.8548079674145782e+01  3.8395986102501375e+01  3.8773309347433731e+01  3.7956798365586458e+01  3.8381274797496523e+01  3.7743065915307696e+01  6.2108898651278231e+01  4.5324602685207374e+01  4.7082802252925987e+01  4.6590086093054573e+01  7.6402915968017354e+01  5.9580168435460216e+01  5.6174077644728101e+01  5.5732009859293150e+01  5.5858536308399728e+01  3.4849891790944646e+01  7.0531971740198074e+01  7.0939172711867627e+01  3.8636764691809333e+01  3.8083277264251194e+01  4.9153058891134975e+01  5.0188350660964637e+01  4.3742490141967792e+01  5.9074757517167740e+01  6.2189924060463916e+01  6.3052982618574212e+01  6.1047348392403961e+01  6.3203769548486441e+01  4.0720286349145418e+01  3.9070172588946122e+01  3.9126544874669548e+01  3.8714131946280027e+01  6.9831102858691764e+01  3.9377335421655118e+01  4.0563977677436647e+01  4.1102825239838559e+01  5.3839285188001945e+01  5.4432950020586865e+01  5.4545269626542357e+01  5.2814321718680183e+01  4.1680088398719057e+01  3.9320393239422721e+01  4.0861214706206880e+01  5.0972036443045326e+01  7.4520734493439292e+01  7.5437265999897875e+01  7.6064025355954655e+01  6.2124670857906580e+01  6.7728018888256400e+01  5.4050309349984914e+01  5.1791535132943267e+01  5.0338743115170864e+01  5.2259991390327372e+01  6.7186912475627139e+01  6.1685804327471580e+01  6.2451428055556441e+01  3.7762577578053445e+01  3.7516181400106952e+01  3.6602293473560607e+01  5.3603777896478320e+01  5.7125617532762718e+01  5.8454845121504860e+01  5.3483618334640390e+01  6.8313635417905374e+01  3.6758434744526177e+01  3.7613395922757526e+01  3.7317971710382913e+01  6.1526886429273581e+01  6.1080782972911919e+01  6.1266686376349881e+01  4.3255999816827099e+01  4.4362405855058341e+01  4.4839231582677549e+01  3.7581925293241326e+01  3.5398241718404492e+01  3.5997684338795771e+01  6.2246570027716189e+01  6.3162531622431352e+01  6.2700697973869630e+01  6.1802710607173317e+01  6.1991821353054988e+01  6.1852303046858381e+01  6.1895627896056403e+01  4.4960036177282753e+01  3.6180482423335548e+01  5.0716847166234444e+01  6.9865781430766518e+01  5.3001510819486782e+01  5.2715524028822934e+01  3.8203008969813872e+01  3.9222239967585402e+01  3.8868814119676671e+01  3.9846576348641157e+01  3.9810244632355257e+01  3.8404192968111722e+01  5.3489317883570124e+01  5.3215553301184052e+01  5.2320296263666222e+01  6.3023131996377629e+01  6.2282154262098011e+01  3.8939309357266538e+01  3.9202453121000978e+01  4.3248077533455380e+01  4.3223309199797349e+01  4.7704703639380597e+01  4.1900077380313604e+01  4.2207482166453126e+01  4.1853090368462865e+01  4.8085343766675628e+01  7.6345077086074852e+01  5.5512884301682469e+01  5.6704429451805154e+01  5.4926469312205043e+01  6.8571981490429110e+01  6.9070992380293077e+01  6.8057047253588493e+01  5.2091589238448890e+01  5.3952351903379643e+01  5.2592247821656784e+01  4.5210258413453658e+01  5.9576019975647569e+01  5.5975291382235390e+01  3.9751097420933121e+01  3.8239695308085530e+01  6.7641754229436486e+01  6.7792411177187788e+01  6.8276617413617075e+01  3.8328909869206456e+01  3.6915140560375633e+01  </DataArray> 
</PointData> 
</Piece>
</UnstructuredGrid>
</VTKFile>