<?xml version="1.0"?>
<VTKFile type="UnstructuredGrid"  version="0.1"  >
<UnstructuredGrid>
<Piece  NumberOfPoints="784" NumberOfCells="1320">
<Points>
<DataArray  type="Float64"  NumberOfComponents="3"  format="ascii">266913.131276 586512.314988 0  266738.13716 587762.325998 0  266363.132677 589012.328643 0  266175.641078 590169.601714 0  265666.575631 591040.7699119999 0  264875.64001 591687.766419 0  264900.636161 591845.049083 0  266088.14152 592012.3229499999 0  265561.959259 592661.17101 0  264288.136855 593037.368683 0  263865.194033 593999.8486949999 0  263850.641856 593236.729596 0  263625.634872 592756.525286 0  262689.574249 593299.848918 0  262475.636737 594003.0907310001 0  261934.554452 594340.929792 0  261725.631329 594932.094409 0  261729.256443 595728.498809 0  262138.136044 595012.330523 0  262288.141035 596262.333669 0  261488.994028 597511.480605 0  261234.15567 598316.338928 0  260815.635063 599014.863821 0  261400.643658 599389.7367680001 0  261322.963374 600022.185065 0  261119.455248 600931.061306 0  261607.436504 601293.0629359999 0  260807.446929 602089.899812 0  260025.642878 602988.868697 0  259613.135827 603937.3854499999 0  259050.643123 604100.987861 0  258411.880065 603988.6335979999 0  257764.357469 604449.872569 0  257971.239668 605320.429125 0  258041.396867 605740.635381 0  257188.143339 606987.394312 0  256038.141198 608112.3554550001 0  254788.141633 609087.4026939999 0  253588.140656 609812.362881 0  252338.135706 609737.4048949999 0  251088.138116 609787.404055 0  249963.12851 610287.399466 0  248613.130524 610462.365857 0  247363.132198 610687.407659 0  246113.130532 610837.411551 0  245832.347438 610918.209918 0  245016.946433 610958.5639439999 0  244313.129646 610762.372259 0  244400.622144 611378.093316 0  243939.669208 612460.8930899999 0  242960.649733 611984.892792 0  242170.381438 611919.647351 0  241888.122919 611112.375656 0  241393.380757 610467.6456149999 0  240594.157528 611306.369822 0  240525.621947 610804.648112 0  240363.123632 610512.3745050001 0  239113.123247 610262.374278 0  239813.12126 609037.412459 0  240588.122952 607812.368199 0  241013.119545 606625.9534560001 0  241454.373249 605724.888025 0  242238.120107 604687.3993 0  243088.121248 603462.362766 0  242860.319451 603007.3932640001 0  241563.116617 603812.361344 0  241778.400913 604327.642217 0  242059.837234 604824.879102 0  241475.620201 604923.2402390001 0  241462.182234 605449.881372 0  240906.219606 605674.888222 0  240241.856192 606891.125066 0  239891.734044 607841.012479 0  239048.653431 608724.889805 0  238118.054545 608974.895967 0  238888.111029 607337.406468 0  239738.119992 606212.362729 0  240288.12044 605687.4075229999 0  240380.212307 604729.521696 0  239347.309632 604603.204501 0  238888.112036 604387.408787 0  237913.11173 604687.401386 0  236784.172023 604499.882783 0  236883.408793 603717.08334 0  236154.933927 603595.565605 0  235688.103943 602912.369264 0  235763.108033 601662.366516 0  236363.110805 600412.35884 0  236738.107995 599162.356577 0  236525.607944 598482.2412899999 0  236138.109208 599362.357613 0  235725.063048 600325.4466510001 0  235091.948926 601408.5220979999 0  235188.10921 600312.366344 0  234375.602405 600833.9674270001 0  234663.109308 599912.358011 0  234138.105122 600062.365644 0  233955.307245 599029.561063 0  233338.103791 598387.401556 0  233988.09795 597862.356384 0  235138.101489 596637.3947750001 0  235563.1039 595387.392428 0  236513.103639 594212.356312 0  237163.10684 592987.3929869999 0  238313.103031 591862.3515540001 0  239513.107028 590812.3512640001 0  240638.102135 589787.387271 0  241463.109549 588587.378486 0  242294.489816 587443.735215 0  242913.101099 586512.341804 0  243544.066915 585474.859604 0  243040.448415 585184.975583 0  242438.10214 585337.38015 0  241313.102353 586562.339499 0  240538.107104 587787.382449 0  240114.641085 588588.939407 0  239388.100256 589437.382238 0  238188.104456 590512.346358 0  236938.100507 591362.349798 0  235813.10453 592537.396388 0  234864.502938 593178.7753880001 0  234463.097651 592862.357267 0  235113.0965 591662.3545979999 0  235713.101522 590412.346099 0  235777.688431 589976.7582779999 0  234943.583145 590706.265132 0  234462.482256 591490.2841159999 0  233801.497784 592112.940187 0  233388.099101 591787.394208 0  234013.093099 590437.393065 0  234776.217248 587148.7548100001 0  235163.093726 586562.3486189999 0  235313.098918 585483.229012 0  235250.59732 584662.298153 0  235588.093896 583337.379493 0  236329.432041 582199.858992 0  237188.096234 581462.3349939999 0  237463.088521 580212.335511 0  238350.592558 579057.652616 0  238591.415797 578574.847681 0  238313.094106 577612.328905 0  239229.696732 577695.769664 0  240195.161018 577513.008613 0  240614.996733 577149.8518770001 0  240663.091715 577412.332622 0  240288.092486 578662.334085 0  239942.357258 579508.095811 0  240438.100019 580212.3334220001 0  241338.095553 580387.375355 0  241238.099828 579137.369157 0  241788.097003 577887.370889 0  241983.554649 577241.9220939999 0  242054.178239 576927.8105029999 0  242588.100699 575737.366175 0  243149.324833 574898.583978 0  243695.278626 573919.517981 0  244268.494418 573724.8454239999 0  244995.134063 573930.2767810001 0  245417.314363 573391.601898 0  243450.599125 571859.479773 0  245776.797908 572599.8353060001 0  246779.639852 572973.285167 0  248034.741935 573186.082054 0  249413.10651 573162.3205520001 0  250496.922226 573271.1521899999 0  251613.105126 573237.3551319999 0  252421.824577 572846.032906 0  253256.245022 572580.4733130001 0  253739.471933 571960.9547369999 0  254174.511864 572149.8346569999 0  254484.944333 571684.194807 0  254384.108649 570891.346712 0  254344.002752 570218.26407 0  255025.609604 570829.0294979999 0  255715.005913 570489.264586 0  256218.846343 570774.828355 0  256834.349083 570508.5908 0  257390.092515 570014.308325 0  257624.431042 568493.478911 0  259355.811717 569380.021819 0  260033.372814 569617.066669 0  262679.741751 570320.699974 0  263289.115756 569524.817815 0  263463.114338 570512.301061 0  264638.198419 570687.3443539999 0  265058.220065 571334.378467 0  265447.561421 572077.90485 0  265488.125257 573137.3446020001 0  265131.937715 573963.293593 0  265432.389648 575093.068786 0  265638.122314 576338.029955 0  265750.630817 577371.8281319999 0  265738.570663 578561.9098850001 0  265875.630866 579139.630549 0  266213.129247 579862.311842 0  266563.130472 581112.314509 0  266238.135356 582362.310259 0  265938.12863 583612.320897 0  265738.131342 584762.3210189999 0  266875.638633 585365.358768 0  264018.7239399826 593650.4646671159 0  262236.3944351029 595831.1252656333 0  241846.246678 605206.1436625 0  240200.622106 608424.8903290001 0  240943.4862974102 610939.7757535663 0  236550.6094 599787.3577085 0  238528.1212051503 608102.9081793013 0  244413.4891967989 572609.5960859474 0  236382.0474488751 598808.3067022427 0  235369.601910944 600933.5380148316 0  235413.099011 591037.3503485 0  235446.2251831186 590266.6553871984 0  240475.5921005 578037.3333535 0  240413.173949154 577324.4280286073 0  240574.037899 606283.0066440001 0  263857.9179445 593618.2891454998 0  264153.4303974913 593343.916675058 0  242042.1833925 604946.7714812499 0  241650.3099635 605465.51584375 0  244613.6985165 572229.6575395 0  236631.8579695 598822.2989335 0  235140.029068 600860.444221 0  241767.7287175 604874.0596705 0  242140.15174975 604817.0853906251 0  234781.8558075 600573.1668855001 0  242091.167571125 604881.9284359375 0  234519.3558565 600373.162719 0  254604.8337712102 583989.0014118921 0  250699.5846056537 594617.3297041012 0  250540.4796469513 602258.2940568649 0  248483.7490186612 580334.7345534252 0  258549.2190328319 577893.951823392 0  257067.0067473103 590016.5327808241 0  243285.0921999099 596333.923437875 0  248333.1386145258 589098.0389905117 0  256142.8445072741 595883.3911551933 0  260245.1368072523 583315.2785712298 0  253472.3380211276 578932.2908163272 0  246432.3347504817 599884.5019511909 0  261555.9240922556 588041.186709004 0  247293.1100123104 605823.8307887657 0  246458.2798550911 593168.8646574575 0  252840.0183145193 588226.5564648228 0  249828.2874404451 584740.7888937403 0  255409.5660975206 600458.8956828594 0  260819.9733392385 574219.403683011 0  252584.2262054711 605722.6603825617 0  254049.8830611471 592547.4852571967 0  250015.4356193061 598425.2225922942 0  245872.072249477 577604.9761853142 0  262002.1583249522 579753.4663046852 0  257732.6630933878 586227.970805314 0  250242.5556457866 577017.3316409125 0  244921.6453001869 581816.6358421432 0  256520.3890639471 580904.824006648 0  240779.0970645865 599524.6679555867 0  257100.1829219198 574459.5922545703 0  239912.2630002034 595231.1172704464 0  244703.0875078634 590068.6945953515 0  242549.5490268674 592874.3693043783 0  251586.0465921376 581796.2215047925 0  246643.189997516 596527.447801719 0  251049.7658069622 591057.6752245198 0  253014.5731561695 596998.6601086652 0  238680.2197353724 584542.2309791476 0  259715.365803504 591937.1938619445 0  254097.157218761 575731.4494927844 0  246806.6408589328 586139.0877599345 0  246136.1179750556 602959.471719323 0  253520.7033332401 602835.180253843 0  244125.4295793909 607538.9817227355 0  252546.8895354472 599881.3279113505 0  258289.0983523553 600397.640191779 0  247518.7952199645 583037.3718217331 0  263140.3959879661 582529.2228421422 0  262894.8586894067 585442.3590432997 0  256968.6320599076 593040.7691844478 0  243573.0187527719 600218.2795730785 0  258888.5766127351 595139.7745218446 0  262588.7569809347 576734.8569237856 0  259318.4257992262 580601.2540325444 0  249963.3812725965 607065.7205847671 0  257494.5307999607 583482.5893534871 0  258906.4757205145 572278.8089438241 0  237751.446593475 587300.5805003279 0  255142.4708720699 604956.7580261135 0  258485.4978753244 597756.9250383095 0  255516.7820591553 587791.39641967 0  239758.4692108706 601926.8203218657 0  255873.0092222999 577739.5085867504
[...]
<PointData  Scalars="f_32-1"> 
<DataArray  type="Float64"  Name="f_32-1"  format="ascii">4.0960365123031544e+01  4.2291992030680746e+01  4.4304861307295830e+01  4.6163882428222664e+01  4.7514639059771582e+01  4.9547759239498490e+01  5.0218650117171869e+01  5.0602027907174708e+01  5.0674469944609356e+01  5.1466777251083620e+01  5.2010657089549682e+01  5.1757800952471328e+01  5.1810584937640698e+01  5.4201231621584746e+01  5.5600978965131581e+01  5.6760238465606243e+01  5.8207272651400217e+01  5.9636125628094248e+01  5.9527545296510652e+01  6.0035659827123425e+01  6.2282361271760749e+01  6.4013297170666206e+01  6.5969537307566426e+01  6.6982894795813223e+01  6.7539807212816598e+01  6.8878986857726659e+01  6.9263294907499272e+01  7.0032563234439181e+01  7.1432287928137370e+01  7.2239866144299967e+01  7.2410387863397631e+01  7.2807774624182116e+01  7.3860286384156311e+01  7.4755077912903957e+01  7.4928593965943662e+01  7.5836249686590790e+01  7.7112008200005647e+01  7.8468217004380222e+01  7.9448396081573520e+01  8.0249088541673586e+01  8.1453975542375659e+01  8.2592707538585103e+01  8.3597268636060562e+01  8.4471634840838604e+01  8.5242202893596087e+01  8.5402498364252779e+01  8.5812740769049682e+01  8.6349360137073234e+01  8.6784365362229707e+01  8.6991877392899028e+01  8.7038196210910542e+01  8.7081879738041224e+01  8.7059173244681361e+01  8.7142096556331339e+01  8.7372090860401869e+01  8.7353623109286403e+01  8.7356349592121546e+01  8.7453963015210334e+01  8.7200150659936710e+01  8.6448938764793510e+01  8.5625541970383807e+01  8.4949342151414356e+01  8.3876764409337255e+01  8.2142311184475332e+01  8.1928413664141914e+01  8.4107442889724510e+01  8.4667538627696501e+01  8.4794506639514708e+01  8.4949659638865569e+01  8.5165492952068632e+01  8.5452854760734880e+01  8.6511979245340171e+01  8.6932328548826717e+01  8.7193770564153354e+01  8.7255857757684780e+01  8.6963939986596003e+01  8.6340739197181804e+01  8.5739388041766261e+01  8.5128028968220605e+01  8.5533603271340453e+01  8.5850578808649331e+01  8.6275885591261869e+01  8.6392277428289830e+01  8.6388920131112855e+01  8.6439135804424168e+01  8.6416063539432585e+01  8.6136696505905149e+01  8.5242333673358559e+01  8.3756113454654852e+01  8.3599608802366319e+01  8.5094675708011266e+01  8.5739587724718092e+01  8.5931466144318080e+01  8.5789201457187573e+01  8.5883762227858483e+01  8.5730764955872189e+01  8.5723933314946620e+01  8.5529200594630311e+01  8.5447162477992919e+01  8.5155762953394557e+01  8.2877892645971045e+01  8.0481799468021961e+01  7.7346259036709839e+01  7.4337982762997370e+01  7.1459682337062091e+01  6.9152792278567063e+01  6.7402377554913201e+01  6.5811296584617637e+01  6.4177026920569801e+01  6.2684199748741300e+01  6.0805818104273868e+01  6.0128476459294752e+01  6.0534113798272386e+01  6.3460037417990691e+01  6.5704902704461432e+01  6.6604014869760562e+01  6.7535140114047309e+01  6.9202735775819392e+01  7.1566233677266652e+01  7.4479655519263034e+01  7.5352084456938783e+01  7.5362037950361739e+01  7.4055316790555509e+01  7.1621915980279979e+01  7.1206982755926802e+01  7.3381355554422854e+01  7.4882808962858007e+01  7.5409948658741996e+01  7.5416092658327443e+01  7.3795387625811983e+01  6.9002744886544122e+01  6.8292699071370876e+01  6.7249661561173880e+01  6.6685397358771752e+01  6.5782382860787905e+01  6.4632198596067354e+01  6.3258922417343321e+01  6.1949129294326234e+01  6.0760056286069883e+01  6.0244249943418126e+01  5.9944572476942191e+01  5.9814255238420586e+01  5.9438357985976616e+01  5.9329055637344325e+01  5.9342049273484221e+01  5.9824882890176276e+01  6.0498702347738082e+01  6.0601824492856665e+01  5.9462724223101048e+01  5.8210645994892609e+01  5.7017714518026494e+01  5.6286324256922029e+01  5.5962984384731286e+01  5.4466399554869440e+01  5.3080928976149899e+01  5.1815466651335157e+01  5.1427199087768521e+01  5.0262751232912215e+01  4.8802768982869352e+01  4.8970567756251242e+01  4.8369608205332348e+01  4.7522093681767210e+01  4.5653510001794722e+01  4.3483841791679907e+01  4.2078650536102707e+01  4.0502490483812757e+01  3.9173011358355375e+01  3.7896236552666451e+01  3.7167892402688580e+01  3.6712748757875183e+01  3.5679818980609241e+01  3.5054762210265821e+01  3.4982973257047242e+01  3.4873324909800552e+01  3.4333600897700130e+01  3.3865592044979117e+01  3.3287427107949895e+01  3.6966370173886610e+01  4.4924941450991675e+01  3.7616549114192871e+01  3.4603044948521074e+01  3.2802888395627484e+01  3.2906547080189156e+01  3.3038522120917840e+01  3.2648132485933026e+01  3.2149548550449133e+01  3.1735600820118123e+01  3.1825291610541527e+01  3.2360050782768610e+01  3.3137398180564801e+01  3.3909359227263174e+01  3.4721121052186490e+01  3.5751903069374457e+01  3.6187785458779167e+01  3.6706940513096171e+01  3.8035643296951868e+01  3.9977438813685310e+01  4.0892647047263829e+01  4.0479693403769694e+01  4.0421591281148039e+01  5.1944756129222803e+01  5.9775302816655476e+01  8.4465215747862231e+01  8.6885945874027811e+01  8.7342510510074078e+01  8.4530741469686632e+01  8.7169945906817134e+01  4.8767468996984121e+01  8.4358033167244201e+01  8.5894818030436170e+01  7.2839186377618020e+01  7.2030958976660784e+01  5.9510681621160678e+01  5.9351486299858756e+01  8.6053500161352090e+01  5.1944979758567072e+01  5.1787906280448681e+01  8.4183822359453359e+01  8.4723836216749206e+01  4.8766596706893857e+01  8.3447349283815655e+01  8.5894853368855763e+01  8.4821359170902312e+01  8.4034326783909577e+01  8.5851861593778025e+01  8.4109884229815790e+01  8.5851329245478084e+01  4.8904433169607614e+01  6.6361805919838190e+01  7.5226263813482802e+01  5.1357191403642545e+01  3.6417685860408085e+01  5.2992092917890936e+01  7.4515047346723961e+01  6.0891792114186501e+01  6.3907681373522493e+01  4.1727218625872290e+01  4.3001058675283460e+01  7.4936059178964058e+01  4.6246366948930380e+01  8.1386086019343097e+01  6.7155479100327327e+01  5.4333482424722540e+01  5.6148746203742732e+01  6.8498804909582205e+01  3.3446004427428903e+01  7.7387153943727753e+01  6.1178628991318782e+01  7.0313719786494190e+01  5.1837310723738604e+01  3.6631001558868874e+01  4.6837844795743273e+01  4.4894203047988945e+01  5.7215430872075167e+01  4.2674372245314430e+01  8.0569953874358561e+01  3.6353483573807360e+01  7.5126014750151086e+01  6.4402780320445089e+01  6.9470613769199247e+01  5.0259595974642068e+01  7.2005578855734129e+01  6.0219358557913672e+01  6.7449418096131694e+01  6.4359003626740844e+01  5.5325268019803438e+01  3.8421892741123706e+01  5.9290585562141004e+01  7.9151157114138854e+01  7.3982103370083195e+01  8.4854852877444927e+01  7.0689658997749191e+01  6.8996946891909914e+01  5.5875005499467477e+01  3.9218638307080923e+01  4.1305465154265747e+01  5.9058767642228688e+01  7.8479015147139023e+01  6.0477230774579809e+01  3.4886799557394220e+01  3.8889305554930232e+01  8.0553800587857680e+01  4.4848780198610093e+01  3.1783061871217239e+01  6.7200843162198879e+01  7.5273711595908892e+01  6.4761065132321818e+01  4.9654925151383850e+01  8.4603640897950811e+01  3.8383872315446844e+01  5.0462748241307480e+01  5.9538304955252158e+01  6.4940100879812334e+01  5.5986282782066439e+01  4.6750931643094319e+01  4.3382944714445564e+01  5.6196102922908679e+01  4.7692953028671333e+01  4.7516563065356785e+01  4.4261479603368102e+01  4.9123529514499509e+01  8.3917468370537350e+01  7.7912464196583585e+01  5.2580099947249678e+01  8.2505545078216898e+01  7.5202793435993470e+01  7.3395278240240870e+01  7.9902042381541492e+01  6.2128519784237668e+01  5.8645130715874011e+01  6.5918310393106125e+01  7.1795182724489280e+01  5.7575377878781211e+01  7.7682472979674728e+01  5.0603600724578492e+01  6.5093591693127962e+01  3.2296013466853388e+01  4.9215203850847651e+01  6.8489783005486402e+01  7.6857215281437334e+01  6.3624535126589066e+01  7.0401485416766306e+01  6.1874410986243525e+01  7.0994552264644071e+01  3.5544393800319455e+01  5.3149613133128788e+01  5.2920656269304359e+01  7.9182935809896549e+01  6.7001792379102483e+01  3.7240611849057906e+01  7.8733738903973347e+01  6.3136602925991802e+01  8.3697076485589548e+01  3.3130205778774361e+01  8.4148013570613301e+01  8.4078209415470099e+01  5.4890117582522038e+01  5.0577845333940203e+01  8.4149653376561716e+01  8.5149079845325872e+01  8.2324326710944021e+01  8.4530332781042375e+01  7.0952703298083946e+01  3.5821577508001113e+01  8.0187128651584814e+01  7.5258835053605324e+01  5.5752552297571484e+01  5.0160709144665013e+01  4.6868751380998738e+01  8.4871496576833394e+01  8.4073561984645835e+01  5.7947090511234329e+01  8.5240546654980307e+01  8.3093858060995487e+01  8.3586507091517291e+01  8.5308376068632612e+01  5.9371848763991260e+01  4.8641693908289682e+01  7.0591806772466313e+01  3.3927164824088635e+01  4.8664511672674450e+01  3.6441290658051315e+01  6.8627183314099696e+01  8.6649391795680131e+01  6.6191886004934503e+01  7.2249775277748995e+01  8.2811674108859947e+01  5.9676887538228499e+01  3.1761440710966689e+01  7.1487561647178595e+01  3.9219336541324907e+01  5.1910316550172205e+01  8.4285152446904732e+01  8.2318513493704970e+01  6.1537012724203848e+01  8.6656175435601043e+01  4.3643442505878802e+01  8.4826057430037906e+01  6.3366967986092057e+01  3.2259438466613439e+01  3.5986279291959598e+01  3.7075363622020760e+01  7.2009686388338523e+01  8.1224437016553011e+01  8.0521826928758017e+01  6.8149941832262414e+01  8.4603022925027261e+01  5.9540895210477125e+01  4.8604488951827356e+01  4.8595279689931367e+01  3.2431375776623931e+01  8.4147346459976106e+01  8.4327321636266419e+01  8.4398121466640816e+01  7.4991125942824880e+01  8.0957323741962782e+01  8.4486926980959595e+01  8.2929160350452335e+01  6.6409251709531347e+01  8.7288092085734320e+01  8.7231427185174510e+01  6.0679936853427989e+01  3.4836813006483538e+01  6.0472378660550838e+01  8.1451997878708752e+01  5.5543278013599618e+01  6.4150712746261064e+01  8.6861162295044124e+01  6.1374074927393416e+01  7.2847391251080765e+01  4.0576314018190743e+01  5.6015251616962779e+01  5.5247208471716611e+01  5.6628951646686524e+01  8.5290661234087040e+01  4.9998697019832839e+01  5.0892140860461325e+01  4.9017653489186372e+01  5.0763392608272092e+01  4.7032473085029125e+01  3.2648448665140499e+01  3.1012161148395556e+01  5.1871056052428173e+01  5.4613163037530938e+01  7.5073844540995395e+01  7.4988785788036182e+01  8.7079349412620928e+01  6.6473388915838683e+01  6.4415119728911407e+01  6.0331157918072421e+01  5.9849743815839979e+01  5.9985541052940981e+01  6.0207561735988278e+01  5.9882808245539458e+01  5.9918328853682560e+01  6.1853763082025282e+01  6.0063378098192430e+01  6.0679157468747590e+01  6.3610857932062025e+01  6.2005158084733729e+01  5.8225622484531669e+01  5.9711333125741845e+01  4.4487321299178532e+01  4.6196795546807309e+01  4.4402707690994653e+01  4.2781695403167483e+01  4.3363479316024709e+01  4.1341142308231930e+01  4.2655838878277251e+01  4.1960762812686461e+01  3.8635574960495859e+01  3.7450408095299267e+01  3.3780258795474147e+01  3.4297372827341803e+01  3.4244378690895623e+01  3.5237260340620551e+01  3.4686608278875624e+01  3.5983180106356173e+01  3.6040024351755179e+01  3.5241988410539754e+01  3.6443767432837085e+01  3.6213708033821803e+01  3.6953100691082334e+01  3.6416010752246621e+01  3.7645667352624301e+01  4.0082826490861940e+01  3.8618178974102150e+01  4.7074664516220011e+01  4.6175863258158671e+01  4.6646152862646325e+01  4.9953497427663940e+01  6.7607952382085713e+01  6.6811031740821406e+01  6.5826204848358373e+01  6.7315752556673814e+01  7.3309992571301379e+01  7.6615630619005259e+01  7.4398606327054040e+01  7.6341293287982595e+01  5.3893102037993707e+01  4.9641855531646975e+01  5.0088627545442350e+01  5.2168388858168306e+01  3.6801907005630461e+01  3.8473906583935921e+01  3.6552494954075954e+01  3.7370364459237450e+01  3.6861690916079731e+01  3.6185800965219798e+01  5.4436273896077111e+01  5.6229754529551684e+01  5.1084819532819054e+01  5.4191895506361774e+01  5.0902825565141022e+01  7.4900910099750604e+01  7.2164092921493904e+01  6.0248948094760451e+01  5.9984850232895013e+01  6.2420374140220005e+01  5.9332297615829020e+01  6.2252243296266826e+01  6.1011005727458091e+01  6.2782721036774987e+01  6.5795120464194753e+01  6.4615965339240233e+01  3.8330997725033903e+01  3.9778782830270828e+01  4.1468796529582548e+01  4.0423489197887498e+01  4.3344674335723624e+01  4.2769869827789265e+01  4.7030032108066841e+01  4.0059811637384904e+01  4.0543356824769539e+01  4.5015268988176203e+01  4.5415426613201127e+01  7.2454461660595427e+01  7.6859007982908068e+01  7.3783413364856926e+01  7.7607993045391098e+01  8.0368668014641401e+01  6.9794059266916761e+01  6.5302766375364271e+01  6.8683103820979909e+01  6.6939703242417977e+01  5.1708052198485611e+01  5.5254891562250329e+01  5.5913366319270004e+01  5.1841325581956823e+01  7.1440198103514433e+01  6.8857795759917877e+01  6.8896065408130951e+01  6.6558455590964158e+01  3.4835061698729390e+01  3.3924338672758054e+01  6.1074880731529625e+01  6.0035920865458785e+01  5.8888381757330841e+01  7.0884154862192773e+01  6.8702422166145070e+01  7.2131980452045482e+01  6.8872030647903344e+01  5.3830715605840005e+01  4.9927051035923732e+01  5.0381141595419450e+01  5.2087852128795738e+01  5.0461890214668117e+01  5.2154735248083789e+01  3.7316511761704035e+01  3.6238889488539712e+01  3.7378158257621401e+01  3.6308359124126845e+01  3.6784027760480861e+01  3.6687286282964507e+01  4.5803812160297916e+01  4.7900547132151615e+01  4.7754814674412913e+01  4.7928406712786149e+01  4.0810156983864360e+01  4.6139198492052977e+01  4.6158275925644695e+01  4.7289927324996945e+01  4.1571750348888628e+01  4.4158031361252988e+01  5.6888660863082549e+01  5.8525775319679113e+01  5.6336897491994982e+01  5.5638647807499090e+01  4.0590004426263583e+01  4.4061548482350169e+01  3.9992917791139561e+01  4.4736018450505497e+01  3.7440990643556098e+01  3.4538421027797369e+01  3.7379882393105326e+01  3.5956921693629184e+01  3.6084432747101879e+01  3.5230296210090550e+01  3.6783887562608541e+01  6.3744005432037532e+01  6.3044862872319726e+01  6.5651833149454433e+01  6.5574118044797601e+01  6.9930662152428383e+01  4.8562924186017376e+01  4.9034899564123748e+01  7.0167765012876984e+01  6.2488559623502553e+01  5.9148250420801489e+01  5.8475065666024285e+01  6.1706254155320167e+01  6.8743106818138173e+01  6.6750215362187561e+01  6.3160252084423895e+01  6.2919485142892356e+01  5.7121870981821033e+01  5.2311590848762407e+01  3.8778106923212093e+01  3.8525096952078606e+01  3.7645457192784612e+01  5.8752407976282292e+01  6.0504295151121823e+01  7.5916283761061905e+01  7.8293362542111197e+01  7.2273638999206412e+01  7.5975540707097920e+01  7.2639868505527488e+01  7.2757935148827926e+01  6.7536255310922371e+01  6.6988839682694291e+01  5.5127714508465907e+01  3.8150215087635871e+01  5.7391163569852118e+01  5.8514333200309110e+01  3.5028591205682737e+01  3.5951430985001984e+01  3.4932438159756217e+01  4.2165887488006355e+01  4.4581523297661910e+01  5.2643024599559297e+01  4.9012459550436709e+01  4.9674329475531501e+01  5.0108496410095981e+01  5.9245667834834315e+01  5.9528269751842167e+01  6.0108399988976700e+01  6.0222853802116461e+01  6.4303225186268776e+01  6.3870082144342391e+01  5.4420071065079775e+01  4.9794466735865704e+01  4.8378445028560847e+01  5.0411244523167305e+01  4.8402680080828738e+01  4.5486316374025037e+01  4.6708077957040672e+01  5.5171451369226745e+01  5.1897323224492048e+01  7.5435500730219132e+01  5.3962990625594479e+01  5.0899325158582670e+01  6.2357291406179868e+01  6.5148128382401254e+01  6.8557887505893234e+01  6.6683924429040971e+01  3.6834587519755758e+01  3.3887013236833639e+01  3.6542992338793987e+01  5.9520616228391866e+01  3.5784132387042490e+01  6.0242614548559565e+01  4.1491806700727544e+01  3.7914127725095199e+01  6.0981646347051196e+01  4.8394350864418847e+01  6.7460215790948624e+01  3.6618113053266278e+01  3.7044747682524644e+01  3.6350754807033027e+01  3.6537732965963897e+01  3.6270482731353439e+01  6.1608214043879087e+01  4.3104817680483691e+01  4.5090008384320285e+01  4.4188584868263639e+01  7.5188975751759955e+01  5.8042440651737500e+01  5.2990843643057197e+01  5.2948782905313784e+01  5.3839813192405906e+01  3.4702599558117733e+01  6.8740337764103955e+01  6.9335643132752551e+01  3.7125975702364450e+01  3.6810318273962586e+01  4.6730801068152907e+01  4.7196401197096371e+01  4.2734407869572664e+01  5.6455784649485594e+01  5.9996961516034119e+01  6.1264910724869949e+01  5.9119765908884879e+01  6.1979141031397354e+01  3.9361184211346533e+01  3.7884698459103674e+01  3.8395784232452137e+01  3.8027471378847984e+01  6.9052264858051558e+01  3.8096802016091786e+01  3.9679139271676817e+01  4.0494346093513293e+01  5.0266537891657521e+01  5.0593422150035309e+01  5.0983822674956912e+01  4.9168489159408125e+01  3.9444712965235034e+01  3.7712507541489089e+01  3.8658443169949109e+01  4.9097208506397891e+01  7.2808887864613453e+01  7.3458301646430783e+01  7.4448471563203142e+01  6.1842334449098473e+01  6.6500113748460990e+01  5.2139919777336303e+01  4.9621642320173329e+01  4.8783174436294807e+01  5.0092101387180449e+01  6.4313235755454244e+01  6.1298222330822362e+01  6.2009914396681211e+01  3.6224637296431524e+01  3.5954862435914968e+01  3.5725550337476569e+01  5.2462957443846470e+01  5.4426376027567457e+01  5.4130620482173846e+01  5.1865682777054232e+01  6.6074728444480570e+01  3.5910920854888246e+01  3.6253408859504248e+01  3.6148913711296977e+01  6.0067593403409525e+01  5.9820878209362753e+01  5.9885971034431684e+01  4.2672258188474501e+01  4.3871099503737831e+01  4.4525012943623672e+01  3.7186242712521285e+01  3.5047617298176483e+01  3.5423177142174247e+01  6.0932702364754427e+01  6.2356524266605611e+01  6.1545687607300358e+01  6.0735549916071982e+01  6.0752628826072893e+01  6.1134594543187447e+01  6.0424234996664723e+01  4.4850033198547948e+01  3.5508853574586880e+01  4.7500059873927889e+01  6.8140604704343261e+01  5.1047480945802810e+01  5.0487401061921041e+01  3.6443681055157128e+01  3.7422616635327991e+01  3.7514306436557547e+01  3.8712433091292461e+01  3.8065269030843524e+01  3.7048332996861333e+01  5.0861086735359883e+01  4.9911831937937400e+01  4.9894282687329436e+01  6.1108389498049377e+01  6.1653277493122673e+01  3.7614973684894295e+01  3.8394627871793475e+01  4.1370902991461087e+01  4.1820356972835640e+01  4.6285512020227969e+01  4.0155297875991430e+01  4.0239877124421277e+01  3.9489241923541229e+01  4.7377602129685847e+01  7.4704521238811779e+01  5.2116916840281505e+01  5.3927327823308921e+01  5.2842092600150920e+01  6.7395063673324159e+01  6.8037055078753752e+01  6.6763098570001162e+01  5.1176308303474705e+01  5.3193048523466672e+01  5.1403766828767090e+01  4.4798791834773780e+01  5.5425348737040906e+01  5.4887753527909304e+01  3.8083720796012614e+01  3.7518628638812039e+01  6.4674096751758810e+01  6.4409280856098093e+01  6.5364028826198393e+01  3.8019889806302437e+01  3.5888579162093869e+01  </DataArray> 
</PointData> 
</Piece>
</UnstructuredGrid>
</VTKFile>