<?xml version="1.0"?>
<VTKFile type="UnstructuredGrid"  version="0.1"  >
<UnstructuredGrid>
<Piece  NumberOfPoints="784" NumberOfCells="1320">
<Points>
<DataArray  type="Float64"  NumberOfComponents="3"  format="ascii">266913.131276 586512.314988 0  266738.13716 587762.325998 0  266363.132677 589012.328643 0  266175.641078 590169.601714 0  265666.575631 591040.7699119999 0  264875.64001 591687.766419 0  264900.636161 591845.049083 0  266088.14152 592012.3229499999 0  265561.959259 592661.17101 0  264288.136855 593037.368683 0  263865.194033 593999.8486949999 0  263850.641856 593236.729596 0  263625.634872 592756.525286 0  262689.574249 593299.848918 0  262475.636737 594003.0907310001 0  261934.554452 594340.929792 0  261725.631329 594932.094409 0  261729.256443 595728.498809 0  262138.136044 595012.330523 0  262288.141035 596262.333669 0  261488.994028 597511.480605 0  261234.15567 598316.338928 0  260815.635063 599014.863821 0  261400.643658 599389.7367680001 0  261322.963374 600022.185065 0  261119.455248 600931.061306 0  261607.436504 601293.0629359999 0  260807.446929 602089.899812 0  260025.642878 602988.868697 0  259613.135827 603937.3854499999 0  259050.643123 604100.987861 0  258411.880065 603988.6335979999 0  257764.357469 604449.872569 0  257971.239668 605320.429125 0  258041.396867 605740.635381 0  257188.143339 606987.394312 0  256038.141198 608112.3554550001 0  254788.141633 609087.4026939999 0  253588.140656 609812.362881 0  252338.135706 609737.4048949999 0  251088.138116 609787.404055 0  249963.12851 610287.399466 0  248613.130524 610462.365857 0  247363.132198 610687.407659 0  246113.130532 610837.411551 0  245832.347438 610918.209918 0  245016.946433 610958.5639439999 0  244313.129646 610762.372259 0  244400.622144 611378.093316 0  243939.669208 612460.8930899999 0  242960.649733 611984.892792 0  242170.381438 611919.647351 0  241888.122919 611112.375656 0  241393.380757 610467.6456149999 0  240594.157528 611306.369822 0  240525.621947 610804.648112 0  240363.123632 610512.3745050001 0  239113.123247 610262.374278 0  239813.12126 609037.412459 0  240588.122952 607812.368199 0  241013.119545 606625.9534560001 0  241454.373249 605724.888025 0  242238.120107 604687.3993 0  243088.121248 603462.362766 0  242860.319451 603007.3932640001 0  241563.116617 603812.361344 0  241778.400913 604327.642217 0  242059.837234 604824.879102 0  241475.620201 604923.2402390001 0  241462.182234 605449.881372 0  240906.219606 605674.888222 0  240241.856192 606891.125066 0  239891.734044 607841.012479 0  239048.653431 608724.889805 0  238118.054545 608974.895967 0  238888.111029 607337.406468 0  239738.119992 606212.362729 0  240288.12044 605687.4075229999 0  240380.212307 604729.521696 0  239347.309632 604603.204501 0  238888.112036 604387.408787 0  237913.11173 604687.401386 0  236784.172023 604499.882783 0  236883.408793 603717.08334 0  236154.933927 603595.565605 0  235688.103943 602912.369264 0  235763.108033 601662.366516 0  236363.110805 600412.35884 0  236738.107995 599162.356577 0  236525.607944 598482.2412899999 0  236138.109208 599362.357613 0  235725.063048 600325.4466510001 0  235091.948926 601408.5220979999 0  235188.10921 600312.366344 0  234375.602405 600833.9674270001 0  234663.109308 599912.358011 0  234138.105122 600062.365644 0  233955.307245 599029.561063 0  233338.103791 598387.401556 0  233988.09795 597862.356384 0  235138.101489 596637.3947750001 0  235563.1039 595387.392428 0  236513.103639 594212.356312 0  237163.10684 592987.3929869999 0  238313.103031 591862.3515540001 0  239513.107028 590812.3512640001 0  240638.102135 589787.387271 0  241463.109549 588587.378486 0  242294.489816 587443.735215 0  242913.101099 586512.341804 0  243544.066915 585474.859604 0  243040.448415 585184.975583 0  242438.10214 585337.38015 0  241313.102353 586562.339499 0  240538.107104 587787.382449 0  240114.641085 588588.939407 0  239388.100256 589437.382238 0  238188.104456 590512.346358 0  236938.100507 591362.349798 0  235813.10453 592537.396388 0  234864.502938 593178.7753880001 0  234463.097651 592862.357267 0  235113.0965 591662.3545979999 0  235713.101522 590412.346099 0  235777.688431 589976.7582779999 0  234943.583145 590706.265132 0  234462.482256 591490.2841159999 0  233801.497784 592112.940187 0  233388.099101 591787.394208 0  234013.093099 590437.393065 0  234776.217248 587148.7548100001 0  235163.093726 586562.3486189999 0  235313.098918 585483.229012 0  235250.59732 584662.298153 0  235588.093896 583337.379493 0  236329.432041 582199.858992 0  237188.096234 581462.3349939999 0  237463.088521 580212.335511 0  238350.592558 579057.652616 0  238591.415797 578574.847681 0  238313.094106 577612.328905 0  239229.696732 577695.769664 0  240195.161018 577513.008613 0  240614.996733 577149.8518770001 0  240663.091715 577412.332622 0  240288.092486 578662.334085 0  239942.357258 579508.095811 0  240438.100019 580212.3334220001 0  241338.095553 580387.375355 0  241238.099828 579137.369157 0  241788.097003 577887.370889 0  241983.554649 577241.9220939999 0  242054.178239 576927.8105029999 0  242588.100699 575737.366175 0  243149.324833 574898.583978 0  243695.278626 573919.517981 0  244268.494418 573724.8454239999 0  244995.134063 573930.2767810001 0  245417.314363 573391.601898 0  243450.599125 571859.479773 0  245776.797908 572599.8353060001 0  246779.639852 572973.285167 0  248034.741935 573186.082054 0  249413.10651 573162.3205520001 0  250496.922226 573271.1521899999 0  251613.105126 573237.3551319999 0  252421.824577 572846.032906 0  253256.245022 572580.4733130001 0  253739.471933 571960.9547369999 0  254174.511864 572149.8346569999 0  254484.944333 571684.194807 0  254384.108649 570891.346712 0  254344.002752 570218.26407 0  255025.609604 570829.0294979999 0  255715.005913 570489.264586 0  256218.846343 570774.828355 0  256834.349083 570508.5908 0  257390.092515 570014.308325 0  257624.431042 568493.478911 0  259355.811717 569380.021819 0  260033.372814 569617.066669 0  262679.741751 570320.699974 0  263289.115756 569524.817815 0  263463.114338 570512.301061 0  264638.198419 570687.3443539999 0  265058.220065 571334.378467 0  265447.561421 572077.90485 0  265488.125257 573137.3446020001 0  265131.937715 573963.293593 0  265432.389648 575093.068786 0  265638.122314 576338.029955 0  265750.630817 577371.8281319999 0  265738.570663 578561.9098850001 0  265875.630866 579139.630549 0  266213.129247 579862.311842 0  266563.130472 581112.314509 0  266238.135356 582362.310259 0  265938.12863 583612.320897 0  265738.131342 584762.3210189999 0  266875.638633 585365.358768 0  264018.7239399826 593650.4646671159 0  262236.3944351029 595831.1252656333 0  241846.246678 605206.1436625 0  240200.622106 608424.8903290001 0  240943.4862974102 610939.7757535663 0  236550.6094 599787.3577085 0  238528.1212051503 608102.9081793013 0  244413.4891967989 572609.5960859474 0  236382.0474488751 598808.3067022427 0  235369.601910944 600933.5380148316 0  235413.099011 591037.3503485 0  235446.2251831186 590266.6553871984 0  240475.5921005 578037.3333535 0  240413.173949154 577324.4280286073 0  240574.037899 606283.0066440001 0  263857.9179445 593618.2891454998 0  264153.4303974913 593343.916675058 0  242042.1833925 604946.7714812499 0  241650.3099635 605465.51584375 0  244613.6985165 572229.6575395 0  236631.8579695 598822.2989335 0  235140.029068 600860.444221 0  241767.7287175 604874.0596705 0  242140.15174975 604817.0853906251 0  234781.8558075 600573.1668855001 0  242091.167571125 604881.9284359375 0  234519.3558565 600373.162719 0  254604.8337712102 583989.0014118921 0  250699.5846056537 594617.3297041012 0  250540.4796469513 602258.2940568649 0  248483.7490186612 580334.7345534252 0  258549.2190328319 577893.951823392 0  257067.0067473103 590016.5327808241 0  243285.0921999099 596333.923437875 0  248333.1386145258 589098.0389905117 0  256142.8445072741 595883.3911551933 0  260245.1368072523 583315.2785712298 0  253472.3380211276 578932.2908163272 0  246432.3347504817 599884.5019511909 0  261555.9240922556 588041.186709004 0  247293.1100123104 605823.8307887657 0  246458.2798550911 593168.8646574575 0  252840.0183145193 588226.5564648228 0  249828.2874404451 584740.7888937403 0  255409.5660975206 600458.8956828594 0  260819.9733392385 574219.403683011 0  252584.2262054711 605722.6603825617 0  254049.8830611471 592547.4852571967 0  250015.4356193061 598425.2225922942 0  245872.072249477 577604.9761853142 0  262002.1583249522 579753.4663046852 0  257732.6630933878 586227.970805314 0  250242.5556457866 577017.3316409125 0  244921.6453001869 581816.6358421432 0  256520.3890639471 580904.824006648 0  240779.0970645865 599524.6679555867 0  257100.1829219198 574459.5922545703 0  239912.2630002034 595231.1172704464 0  244703.0875078634 590068.6945953515 0  242549.5490268674 592874.3693043783 0  251586.0465921376 581796.2215047925 0  246643.189997516 596527.447801719 0  251049.7658069622 591057.6752245198 0  253014.5731561695 596998.6601086652 0  238680.2197353724 584542.2309791476 0  259715.365803504 591937.1938619445 0  254097.157218761 575731.4494927844 0  246806.6408589328 586139.0877599345 0  246136.1179750556 602959.471719323 0  253520.7033332401 602835.180253843 0  244125.4295793909 607538.9817227355 0  252546.8895354472 599881.3279113505 0  258289.0983523553 600397.640191779 0  247518.7952199645 583037.3718217331 0  263140.3959879661 582529.2228421422 0  262894.8586894067 585442.3590432997 0  256968.6320599076 593040.7691844478 0  243573.0187527719 600218.2795730785 0  258888.5766127351 595139.7745218446 0  262588.7569809347 576734.8569237856 0  259318.4257992262 580601.2540325444 0  249963.3812725965 607065.7205847671 0  257494.5307999607 583482.5893534871 0  258906.4757205145 572278.8089438241 0  237751.446593475 587300.5805003279 0  255142.4708720699 604956.7580261135 0  258485.4978753244 597756.9250383095 0  255516.7820591553 587791.39641967 0  239758.4692108706 601926.8203218657 0  255873.0092222999 577739.5085867504
[...]
<PointData  Scalars="f_49376-1"> 
<DataArray  type="Float64"  Name="f_49376-1"  format="ascii">4.1021068441355112e+01  4.2345449644961391e+01  4.4350097740781180e+01  4.6194304147321212e+01  4.7539096289324839e+01  4.9574543526908826e+01  5.0245622431221655e+01  5.0650226122839847e+01  5.0711706166557249e+01  5.1452338602754153e+01  5.1953759256110338e+01  5.1726644759209186e+01  5.1815363010343617e+01  5.4234557414624817e+01  5.5648346926393657e+01  5.6817447632564225e+01  5.8279521185239801e+01  5.9732062874265182e+01  5.9649683991399542e+01  6.0136001365718251e+01  6.2348485765948539e+01  6.4075783198060392e+01  6.6039196068410931e+01  6.7062508411650526e+01  6.7617284245335640e+01  6.8940007032509683e+01  6.9321087776850391e+01  7.0074423227859555e+01  7.1452466131840083e+01  7.2255203724937815e+01  7.2428566276174124e+01  7.2837465596301541e+01  7.3911131505068269e+01  7.4818735297647393e+01  7.4993736443824318e+01  7.5899540616119438e+01  7.7168559889247064e+01  7.8514836902726543e+01  7.9483074540296869e+01  8.0284463702521421e+01  8.1489408199204064e+01  8.2627451814671559e+01  8.3634313214669888e+01  8.4512173398738952e+01  8.5286869463155583e+01  8.5448675270739685e+01  8.5863459102875510e+01  8.6403744357669510e+01  8.6837933385599115e+01  8.7042688328469225e+01  8.7086388217673246e+01  8.7128058437965919e+01  8.7107962873468779e+01  8.7191996387399755e+01  8.7415201783436103e+01  8.7397587964858161e+01  8.7400596658442879e+01  8.7494661053989233e+01  8.7249529521920465e+01  8.6507139378818238e+01  8.5685223090120374e+01  8.5010388213857269e+01  8.3934804085008608e+01  8.2196807817688409e+01  8.1991936337598744e+01  8.4179570246876239e+01  8.4742596506899162e+01  8.4870855619554646e+01  8.5024144253527965e+01  8.5238285682360214e+01  8.5524070248974738e+01  8.6580909806519600e+01  8.6994680203658461e+01  8.7244350798627067e+01  8.7302562149913015e+01  8.7024922274393973e+01  8.6410582508714242e+01  8.5809543918216534e+01  8.5196527682494548e+01  8.5590575650990999e+01  8.5902701090521987e+01  8.6327906531058062e+01  8.6446904284737485e+01  8.6441685656323799e+01  8.6489949343637477e+01  8.6465254363672315e+01  8.6184828332067568e+01  8.5286094937178021e+01  8.3799497816625930e+01  8.3637844172090567e+01  8.5127998518466612e+01  8.5770089214414014e+01  8.5961980947716683e+01  8.5817779628554248e+01  8.5908467306998602e+01  8.5754951188334346e+01  8.5745053619933529e+01  8.5546985206872790e+01  8.5462088643444488e+01  8.5172601160092100e+01  8.2900495359783818e+01  8.0514584576475329e+01  7.7402076943695647e+01  7.4420271285612429e+01  7.1569178528045768e+01  6.9252798022287550e+01  6.7471592466013576e+01  6.5853189688445795e+01  6.4203372114646385e+01  6.2702335226482695e+01  6.0809263287454463e+01  6.0144160976391873e+01  6.0568152016368863e+01  6.3483425896211074e+01  6.5743426088546840e+01  6.6656653323178531e+01  6.7599207676797846e+01  6.9276316816655651e+01  7.1619684091256687e+01  7.4440839420778289e+01  7.5268298023797300e+01  7.5277586062052734e+01  7.4034601350354379e+01  7.1673772684564426e+01  7.1259896852651480e+01  7.3378864485704568e+01  7.4830919935548252e+01  7.5335723803004186e+01  7.5341077523108410e+01  7.3780292760870338e+01  6.9043510961572110e+01  6.8331056623895662e+01  6.7279657439960715e+01  6.6709418552327946e+01  6.5807458378791566e+01  6.4667720914113232e+01  6.3299636711921757e+01  6.1988302296830206e+01  6.0808836014931750e+01  6.0301322536744657e+01  6.0003514420520624e+01  5.9885761508303894e+01  5.9538355867763599e+01  5.9436536220382152e+01  5.9448641991924681e+01  5.9906990280625898e+01  6.0563475382014815e+01  6.0656100044594872e+01  5.9490735143600951e+01  5.8220511086348154e+01  5.7021191894492958e+01  5.6287744266440789e+01  5.5964153432770367e+01  5.4473616512851827e+01  5.3105067689264743e+01  5.1862052283861580e+01  5.1477398060273920e+01  5.0312543920402597e+01  4.8855736144464800e+01  4.8977793182942278e+01  4.8424144266045985e+01  4.7587213936013598e+01  4.5708222726946033e+01  4.3528570507228004e+01  4.2111677336050832e+01  4.0519272416262865e+01  3.9187381914181202e+01  3.7915415128768835e+01  3.7184777773887255e+01  3.6731096824884240e+01  3.5705205173253098e+01  3.5090491484396502e+01  3.5021008314343661e+01  3.4914805894963067e+01  3.4389906414115543e+01  3.3931683274790110e+01  3.3445121402690795e+01  3.7091761114960825e+01  4.4293410341039184e+01  3.7489410906781387e+01  3.4574942560929806e+01  3.2807762821812453e+01  3.2949219715794371e+01  3.3019912169494219e+01  3.2664526544274800e+01  3.2207980163097325e+01  3.1809537017678924e+01  3.1879558057624706e+01  3.2399660198149931e+01  3.3176433454528606e+01  3.3950665829971619e+01  3.4746486945678647e+01  3.5755995180779557e+01  3.6208639007570916e+01  3.6761656717602300e+01  3.8090564911075518e+01  3.9969238865299879e+01  4.0881590068238211e+01  4.0542823311315011e+01  4.0491567583088489e+01  5.1894343191241177e+01  5.9881929336901877e+01  8.4525813774398955e+01  8.6941099223348033e+01  8.7386746001618974e+01  8.4574067148015743e+01  8.7221787929493459e+01  4.8791334218276681e+01  8.4392734027075420e+01  8.5925191587012321e+01  7.2862281034228729e+01  7.2062922514245898e+01  5.9606917811419628e+01  5.9457424616829975e+01  8.6123694015014280e+01  5.1894522059684448e+01  5.1752334963272133e+01  8.4243341268852234e+01  8.4784937249067497e+01  4.8790516214213099e+01  8.3489938520514087e+01  8.5925239546275535e+01  8.4897263694095443e+01  8.4093156832509834e+01  8.5877178553039869e+01  8.4169071372169910e+01  8.5876598003382441e+01  4.8832016930762791e+01  6.6313094857970100e+01  7.5249539043692010e+01  5.1298800039451571e+01  3.6369358883701892e+01  5.2703197569618744e+01  7.4562327119484124e+01  6.0797267202795318e+01  6.3943714303706216e+01  4.1745921528469275e+01  4.2899527703158618e+01  7.4877138510903109e+01  4.6293101987861213e+01  8.1451915409552115e+01  6.7104099239370683e+01  5.4143584908665964e+01  5.6144609503741130e+01  6.8496609692579085e+01  3.3456456289652053e+01  7.7457978764726747e+01  6.1148009822063557e+01  7.0195710650943326e+01  5.1847283593819192e+01  3.6636270233336148e+01  4.6619606464247589e+01  4.4862419211317373e+01  5.7203704915505654e+01  4.2658426289383996e+01  8.0641803209053705e+01  3.6357884871640884e+01  7.5212118274348896e+01  6.4211369816352601e+01  6.9531870475262281e+01  5.0287894396392659e+01  7.2026408722529069e+01  6.0031018350488125e+01  6.7386619494312214e+01  6.4391416534269140e+01  5.5329045238320269e+01  3.8422852444558593e+01  5.9281346644991906e+01  7.9178286192088819e+01  7.4022114369786934e+01  8.4916885818960907e+01  7.0663091507890982e+01  6.9018965154190028e+01  5.5897023112184336e+01  3.9242023286399451e+01  4.1374425354916987e+01  5.8983837771373594e+01  7.8549517156422553e+01  6.0539001624760132e+01  3.4902434940110417e+01  3.8875655164897701e+01  8.0615534130004633e+01  4.4819960005434069e+01  3.1861944273404340e+01  6.7259774924533417e+01  7.5337595480114729e+01  6.4809819705644543e+01  4.9239659780767418e+01  8.4612525283438060e+01  3.8321602943425297e+01  5.0513803308416250e+01  5.9575447539483605e+01  6.4886654806590826e+01  5.6004170919593157e+01  4.6755916773278116e+01  4.3435448361930668e+01  5.5980729127322469e+01  4.7666899105905792e+01  4.7524311692511631e+01  4.4302007649156209e+01  4.9018065780474025e+01  8.3976586034732009e+01  7.7980231522576631e+01  5.2589154958646283e+01  8.2565690034699301e+01  7.5254490275076236e+01  7.3262433700130543e+01  7.9973513666652508e+01  6.2167538897587477e+01  5.8682826815676854e+01  6.5885888243286061e+01  7.1823650342064880e+01  5.7550562426481477e+01  7.7704374608380007e+01  5.0394166877058119e+01  6.5112766982422045e+01  3.2333186043042403e+01  4.9135675232750415e+01  6.8479607255345883e+01  7.6939542713407732e+01  6.3383632268954301e+01  7.0445988335754237e+01  6.1787453506140089e+01  7.1093812198373612e+01  3.5507123965446837e+01  5.3100922745598268e+01  5.2960398646469123e+01  7.9239753452684468e+01  6.6879812225561679e+01  3.7242983745277492e+01  7.8792747241176215e+01  6.3116765856011654e+01  8.3723030430379524e+01  3.3156439383607719e+01  8.4210021636551645e+01  8.4138411088098223e+01  5.4901376029784963e+01  5.0604169032746654e+01  8.4209308923702579e+01  8.5203036437359856e+01  8.2377963668847116e+01  8.4555800641079898e+01  7.0986205594584860e+01  3.5842805731023716e+01  8.0235297609424620e+01  7.5323518339230944e+01  5.5758667484993204e+01  5.0186356484207508e+01  4.6928242430859726e+01  8.4933686942263577e+01  8.4132655600848793e+01  5.7997734462639862e+01  8.5281661370599338e+01  8.3148279450874213e+01  8.3643659079029902e+01  8.5356859728809766e+01  5.9385418661972729e+01  4.8677059269202282e+01  7.0660032809892272e+01  3.3947790858868863e+01  4.8715958161484899e+01  3.6401513499089660e+01  6.8685473663901888e+01  8.6709074083575601e+01  6.6228813968705268e+01  7.2269375762839545e+01  8.2857954047697802e+01  5.9728226891422601e+01  3.1950850435358632e+01  7.1523319433677599e+01  3.9241982910100738e+01  5.1949442352703556e+01  8.4316869077110141e+01  8.2352158171046497e+01  6.1590509956624778e+01  8.6715047837416463e+01  4.3645955828506729e+01  8.4855024134785637e+01  6.3425374570525804e+01  3.2287935320422484e+01  3.6008464386733536e+01  3.7133239899581518e+01  7.2030391849706319e+01  8.1279796441927317e+01  8.0589115740154753e+01  6.8198982691702483e+01  8.4664330278185062e+01  5.9607366396964338e+01  4.8644916201336798e+01  4.8635381402701249e+01  3.2600624680095706e+01  8.4206724892175060e+01  8.4387432491254458e+01  8.4458633586973562e+01  7.5055860795698507e+01  8.1012898398834935e+01  8.4536365799001928e+01  8.2978535464381778e+01  6.6459159441616094e+01  8.7334350125534328e+01  8.7279934839901102e+01  6.0716503264737597e+01  3.4836698847729764e+01  6.0531365011782569e+01  8.1506638928452318e+01  5.5584187698763110e+01  6.4188626097158149e+01  8.6913677819553627e+01  6.1436548851771526e+01  7.2889880265441988e+01  4.0591881182471269e+01  5.6017901291641245e+01  5.5249743773765637e+01  5.6634343743841754e+01  8.5318245725956018e+01  5.0024761223780949e+01  5.0908977918006791e+01  4.9053387174483930e+01  5.0779994240057050e+01  4.7070766682345976e+01  3.2649859135642217e+01  3.1093979874256895e+01  5.1911959048687272e+01  5.4622849095826794e+01  7.5005340545248899e+01  7.4924509905538741e+01  8.7131811319453874e+01  6.6495558534892879e+01  6.4392490502892556e+01  6.0322705882022824e+01  5.9860214235488428e+01  5.9991884945513249e+01  6.0234351931511199e+01  5.9892915841483202e+01  5.9951052928846842e+01  6.1887907639810606e+01  6.0107223907132443e+01  6.0754725288990592e+01  6.3653610955648283e+01  6.2066137773106632e+01  5.8245799970638451e+01  5.9736988635985028e+01  4.4535426618954894e+01  4.6229123544082888e+01  4.4436819609801994e+01  4.2822015672741244e+01  4.3393374718371184e+01  4.1365112708229795e+01  4.2679029672565740e+01  4.1977462553897510e+01  3.8664397293366342e+01  3.7488285093669553e+01  3.3813953548693050e+01  3.4333219868247824e+01  3.4273182123154434e+01  3.5247217851411250e+01  3.4703766574004931e+01  3.5992833806092975e+01  3.6029562666123944e+01  3.5238414178335226e+01  3.6483245529934010e+01  3.6212353988384621e+01  3.6977951110159864e+01  3.6433936526380187e+01  3.7683354609411055e+01  4.0048224493958649e+01  3.8628890289309481e+01  4.6803225208073499e+01  4.6168352126001928e+01  4.6559935775126412e+01  4.9800646638882398e+01  6.7490449471362496e+01  6.6747984656194845e+01  6.5792074277168140e+01  6.7268836352084421e+01  7.3314610420566140e+01  7.6667529336077223e+01  7.4348195385375774e+01  7.6354199997510719e+01  5.3828863592788046e+01  4.9618041978605994e+01  5.0002342915432997e+01  5.2071067688349757e+01  3.6752911985101179e+01  3.8461322299361910e+01  3.6526595110440340e+01  3.7342698309870777e+01  3.6850484832718799e+01  3.6108601626099208e+01  5.4339618169371654e+01  5.6001903450496378e+01  5.0707161844926752e+01  5.3893243856234058e+01  5.0683330729416738e+01  7.4948628858183767e+01  7.2198819891503163e+01  6.0075283680099538e+01  5.9923871722606172e+01  6.2283155622350918e+01  5.9284257304321898e+01  6.2094801822951482e+01  6.0870201525844209e+01  6.2791822093367259e+01  6.5786333784356799e+01  6.4643730121041273e+01  3.8352200951249934e+01  3.9810519564766899e+01  4.1515821371804790e+01  4.0423283501958494e+01  4.3295261846714254e+01  4.2724732262355197e+01  4.6979025502026900e+01  3.9972670633839904e+01  4.0447227222667792e+01  4.4964187266214694e+01  4.5332547329645578e+01  7.2321927915126736e+01  7.6822005591728910e+01  7.3648072910372747e+01  7.7614072437502600e+01  8.0423550503738596e+01  6.9830212166088202e+01  6.5122014304626433e+01  6.8689667517229992e+01  6.6819231123113127e+01  5.1400165220895865e+01  5.5011753854455499e+01  5.5819882107321298e+01  5.1637655016014577e+01  7.1448224385245013e+01  6.8860041210761509e+01  6.8893984962688720e+01  6.6553244002551267e+01  3.4837776713235762e+01  3.3967860391654810e+01  6.1019547443443692e+01  5.9930041108946511e+01  5.8772758903697259e+01  7.0813205748625407e+01  6.8596961659668423e+01  7.2008117101311811e+01  6.8773761848491304e+01  5.3847312264420871e+01  4.9925626903257573e+01  5.0349511414983326e+01  5.2099570223698819e+01  5.0479507926419032e+01  5.2176897873984402e+01  3.7356607115117640e+01  3.6212922056404892e+01  3.7371164998565092e+01  3.6270954283083555e+01  3.6787447920084844e+01  3.6651447894733444e+01  4.5680701566987906e+01  4.7490020840808874e+01  4.7577242319553328e+01  4.7523441841286264e+01  4.0777109893147205e+01  4.6102969833854949e+01  4.6142933713557611e+01  4.7240005157894181e+01  4.1541201682331170e+01  4.4139049692942500e+01  5.6806829522735740e+01  5.8547057706040697e+01  5.6350767906952093e+01  5.5552868929395451e+01  4.0580298004683492e+01  4.4058662311630620e+01  3.9960110029525900e+01  4.4727228078758692e+01  3.7439013660643816e+01  3.4554827881463119e+01  3.7346595532561622e+01  3.5935085281864531e+01  3.6099327941321327e+01  3.5243246131932857e+01  3.6804032479058286e+01  6.3454231749094156e+01  6.2914144623361338e+01  6.5439879379456613e+01  6.5505827552067458e+01  6.9973250595520256e+01  4.8577323564471563e+01  4.9034123064433359e+01  7.0176872129275495e+01  6.2345253079303291e+01  5.9010846202393687e+01  5.8323635037652714e+01  6.1607296180823354e+01  6.8675256450064381e+01  6.6704982810442758e+01  6.3193263012586442e+01  6.2960484017075622e+01  5.7090973142928640e+01  5.2279028690651884e+01  3.8688326003930122e+01  3.8561477336723478e+01  3.7696427568838047e+01  5.8758873670260861e+01  6.0440151839414156e+01  7.5839461206020843e+01  7.8306654180933009e+01  7.2284984656260050e+01  7.6039693584044983e+01  7.2666306043477661e+01  7.2711204117822916e+01  6.7513482240969878e+01  6.6979228491704262e+01  5.4949182160080518e+01  3.8171931614656344e+01  5.7157283999466287e+01  5.8541998025307699e+01  3.5038121235931968e+01  3.5902166371401599e+01  3.4933170888154471e+01  4.2165036137617243e+01  4.4574549853518185e+01  5.2316852096843228e+01  4.8655427809945920e+01  4.9320871125868635e+01  5.0126052461391389e+01  5.9273419498315981e+01  5.9577485331911561e+01  6.0140310546387802e+01  6.0284057662853641e+01  6.4192533703291076e+01  6.3799163781861573e+01  5.4429610847923392e+01  4.9817282890190242e+01  4.8319353103621410e+01  5.0425075348764331e+01  4.8372594397749339e+01  4.5492552728995015e+01  4.6693451642819056e+01  5.5140015830476436e+01  5.1833559834339049e+01  7.5373434429124970e+01  5.3883254553678299e+01  5.0847488945924098e+01  6.2148065176844639e+01  6.4867791309691043e+01  6.8554682697968374e+01  6.6626569592318049e+01  3.6812748854316801e+01  3.3909968570967713e+01  3.6576110326073824e+01  5.9543716685094893e+01  3.5742390677924767e+01  6.0319170522483802e+01  4.1481229183909036e+01  3.7972633300636964e+01  6.1021377522838620e+01  4.8152051916865993e+01  6.7370475708204808e+01  3.6556149974534037e+01  3.7024727348842468e+01  3.6309681591340755e+01  3.6513552460511463e+01  3.6217453429341873e+01  6.1449343068628139e+01  4.3017042497621745e+01  4.4995321777069407e+01  4.4085589719665236e+01  7.5092775217711718e+01  5.7857633519061714e+01  5.2747104755750946e+01  5.2752088895258218e+01  5.3705507170244594e+01  3.4700193980324421e+01  6.8618487009544282e+01  6.9216572486355290e+01  3.7150035435599548e+01  3.6838488407350319e+01  4.6447752141030101e+01  4.6842030945481525e+01  4.2701523202839013e+01  5.6330744265815881e+01  5.9789082868015491e+01  6.1087548128937300e+01  5.8918368052303308e+01  6.1843105241048036e+01  3.9346152789049214e+01  3.7887516725628380e+01  3.8421578062906825e+01  3.8057264256055802e+01  6.9024333175262342e+01  3.8076977039917551e+01  3.9667771313998884e+01  4.0486477669804167e+01  4.9861877741809955e+01  5.0224185371233794e+01  5.0605689519135204e+01  4.8747382035469947e+01  3.9357350828464433e+01  3.7662148591028647e+01  3.8571049742574324e+01  4.8862545722804292e+01  7.2661320367786359e+01  7.3312177462671684e+01  7.4328398809669807e+01  6.1880640791075045e+01  6.6475045385089715e+01  5.2008366583191140e+01  4.9533298641095143e+01  4.8702556005730003e+01  5.0018688520843504e+01  6.4031575447486759e+01  6.1171794594685792e+01  6.1867133815714922e+01  3.6156523882146949e+01  3.5889372180041065e+01  3.5686434600057126e+01  5.2456279253471493e+01  5.4348824985529774e+01  5.3993668529269989e+01  5.1826000635076994e+01  6.5857389922891912e+01  3.5878526698382466e+01  3.6191759708268087e+01  3.6099564884480138e+01  6.0135640710060883e+01  5.9886380991303426e+01  5.9954111921257777e+01  4.2654428314607493e+01  4.3861708673371652e+01  4.4529546703063438e+01  3.7223753882898798e+01  3.5042394654936409e+01  3.5396707757430555e+01  6.1009947788509272e+01  6.2414759024297325e+01  6.1617217708776622e+01  6.0800801439740532e+01  6.0826189818498108e+01  6.1185619312329571e+01  6.0502914295379291e+01  4.4868846405003104e+01  3.5485757033565932e+01  4.7153778523071914e+01  6.8027981889374317e+01  5.0963502526487382e+01  5.0408037170685020e+01  3.6370698874546854e+01  3.7411928250714652e+01  3.7487385634157924e+01  3.8700043297097928e+01  3.8048639235975621e+01  3.7023441353939418e+01  5.0529082743176197e+01  4.9524007273064250e+01  4.9596839348682330e+01  6.0918668167700183e+01  6.1478995480620632e+01  3.7652051840061603e+01  3.8432603397203891e+01  4.1305455572395061e+01  4.1781132500772706e+01  4.6208148256613512e+01  4.0108708907189786e+01  4.0178171599542665e+01  3.9383716959738599e+01  4.7333827557016747e+01  7.4585303101919465e+01  5.1787992322772560e+01  5.3646083430951748e+01  5.2709549177854768e+01  6.7399126780078603e+01  6.8030903287210123e+01  6.6755554129658663e+01  5.1169543088759085e+01  5.3205334826046723e+01  5.1389090151827197e+01  4.4793042969697517e+01  5.5269254224417367e+01  5.4860189661825700e+01  3.8038739025384046e+01  3.7543665539840461e+01  6.4396125959323840e+01  6.4107566706523869e+01  6.5096166907756967e+01  3.8070174139161907e+01  3.5838857955982071e+01  </DataArray> 
</PointData> 
</Piece>
</UnstructuredGrid>
</VTKFile>