<?xml version="1.0"?>
<VTKFile type="UnstructuredGrid"  version="0.1"  >
<UnstructuredGrid>
<Piece  NumberOfPoints="784" NumberOfCells="1320">
<Points>
<DataArray  type="Float64"  NumberOfComponents="3"  format="ascii">266913.131276 586512.314988 0  266738.13716 587762.325998 0  266363.132677 589012.328643 0  266175.641078 590169.601714 0  265666.575631 591040.7699119999 0  264875.64001 591687.766419 0  264900.636161 591845.049083 0  266088.14152 592012.3229499999 0  265561.959259 592661.17101 0  264288.136855 593037.368683 0  263865.194033 593999.8486949999 0  263850.641856 593236.729596 0  263625.634872 592756.525286 0  262689.574249 593299.848918 0  262475.636737 594003.0907310001 0  261934.554452 594340.929792 0  261725.631329 594932.094409 0  261729.256443 595728.498809 0  262138.136044 595012.330523 0  262288.141035 596262.333669 0  261488.994028 597511.480605 0  261234.15567 598316.338928 0  260815.635063 599014.863821 0  261400.643658 599389.7367680001 0  261322.963374 600022.185065 0  261119.455248 600931.061306 0  261607.436504 601293.0629359999 0  260807.446929 602089.899812 0  260025.642878 602988.868697 0  259613.135827 603937.3854499999 0  259050.643123 604100.987861 0  258411.880065 603988.6335979999 0  257764.357469 604449.872569 0  257971.239668 605320.429125 0  258041.396867 605740.635381 0  257188.143339 606987.394312 0  256038.141198 608112.3554550001 0  254788.141633 609087.4026939999 0  253588.140656 609812.362881 0  252338.135706 609737.4048949999 0  251088.138116 609787.404055 0  249963.12851 610287.399466 0  248613.130524 610462.365857 0  247363.132198 610687.407659 0  246113.130532 610837.411551 0  245832.347438 610918.209918 0  245016.946433 610958.5639439999 0  244313.129646 610762.372259 0  244400.622144 611378.093316 0  243939.669208 612460.8930899999 0  242960.649733 611984.892792 0  242170.381438 611919.647351 0  241888.122919 611112.375656 0  241393.380757 610467.6456149999 0  240594.157528 611306.369822 0  240525.621947 610804.648112 0  240363.123632 610512.3745050001 0  239113.123247 610262.374278 0  239813.12126 609037.412459 0  240588.122952 607812.368199 0  241013.119545 606625.9534560001 0  241454.373249 605724.888025 0  242238.120107 604687.3993 0  243088.121248 603462.362766 0  242860.319451 603007.3932640001 0  241563.116617 603812.361344 0  241778.400913 604327.642217 0  242059.837234 604824.879102 0  241475.620201 604923.2402390001 0  241462.182234 605449.881372 0  240906.219606 605674.888222 0  240241.856192 606891.125066 0  239891.734044 607841.012479 0  239048.653431 608724.889805 0  238118.054545 608974.895967 0  238888.111029 607337.406468 0  239738.119992 606212.362729 0  240288.12044 605687.4075229999 0  240380.212307 604729.521696 0  239347.309632 604603.204501 0  238888.112036 604387.408787 0  237913.11173 604687.401386 0  236784.172023 604499.882783 0  236883.408793 603717.08334 0  236154.933927 603595.565605 0  235688.103943 602912.369264 0  235763.108033 601662.366516 0  236363.110805 600412.35884 0  236738.107995 599162.356577 0  236525.607944 598482.2412899999 0  236138.109208 599362.357613 0  235725.063048 600325.4466510001 0  235091.948926 601408.5220979999 0  235188.10921 600312.366344 0  234375.602405 600833.9674270001 0  234663.109308 599912.358011 0  234138.105122 600062.365644 0  233955.307245 599029.561063 0  233338.103791 598387.401556 0  233988.09795 597862.356384 0  235138.101489 596637.3947750001 0  235563.1039 595387.392428 0  236513.103639 594212.356312 0  237163.10684 592987.3929869999 0  238313.103031 591862.3515540001 0  239513.107028 590812.3512640001 0  240638.102135 589787.387271 0  241463.109549 588587.378486 0  242294.489816 587443.735215 0  242913.101099 586512.341804 0  243544.066915 585474.859604 0  243040.448415 585184.975583 0  242438.10214 585337.38015 0  241313.102353 586562.339499 0  240538.107104 587787.382449 0  240114.641085 588588.939407 0  239388.100256 589437.382238 0  238188.104456 590512.346358 0  236938.100507 591362.349798 0  235813.10453 592537.396388 0  234864.502938 593178.7753880001 0  234463.097651 592862.357267 0  235113.0965 591662.3545979999 0  235713.101522 590412.346099 0  235777.688431 589976.7582779999 0  234943.583145 590706.265132 0  234462.482256 591490.2841159999 0  233801.497784 592112.940187 0  233388.099101 591787.394208 0  234013.093099 590437.393065 0  234776.217248 587148.7548100001 0  235163.093726 586562.3486189999 0  235313.098918 585483.229012 0  235250.59732 584662.298153 0  235588.093896 583337.379493 0  236329.432041 582199.858992 0  237188.096234 581462.3349939999 0  237463.088521 580212.335511 0  238350.592558 579057.652616 0  238591.415797 578574.847681 0  238313.094106 577612.328905 0  239229.696732 577695.769664 0  240195.161018 577513.008613 0  240614.996733 577149.8518770001 0  240663.091715 577412.332622 0  240288.092486 578662.334085 0  239942.357258 579508.095811 0  240438.100019 580212.3334220001 0  241338.095553 580387.375355 0  241238.099828 579137.369157 0  241788.097003 577887.370889 0  241983.554649 577241.9220939999 0  242054.178239 576927.8105029999 0  242588.100699 575737.366175 0  243149.324833 574898.583978 0  243695.278626 573919.517981 0  244268.494418 573724.8454239999 0  244995.134063 573930.2767810001 0  245417.314363 573391.601898 0  243450.599125 571859.479773 0  245776.797908 572599.8353060001 0  246779.639852 572973.285167 0  248034.741935 573186.082054 0  249413.10651 573162.3205520001 0  250496.922226 573271.1521899999 0  251613.105126 573237.3551319999 0  252421.824577 572846.032906 0  253256.245022 572580.4733130001 0  253739.471933 571960.9547369999 0  254174.511864 572149.8346569999 0  254484.944333 571684.194807 0  254384.108649 570891.346712 0  254344.002752 570218.26407 0  255025.609604 570829.0294979999 0  255715.005913 570489.264586 0  256218.846343 570774.828355 0  256834.349083 570508.5908 0  257390.092515 570014.308325 0  257624.431042 568493.478911 0  259355.811717 569380.021819 0  260033.372814 569617.066669 0  262679.741751 570320.699974 0  263289.115756 569524.817815 0  263463.114338 570512.301061 0  264638.198419 570687.3443539999 0  265058.220065 571334.378467 0  265447.561421 572077.90485 0  265488.125257 573137.3446020001 0  265131.937715 573963.293593 0  265432.389648 575093.068786 0  265638.122314 576338.029955 0  265750.630817 577371.8281319999 0  265738.570663 578561.9098850001 0  265875.630866 579139.630549 0  266213.129247 579862.311842 0  266563.130472 581112.314509 0  266238.135356 582362.310259 0  265938.12863 583612.320897 0  265738.131342 584762.3210189999 0  266875.638633 585365.358768 0  264018.7239399826 593650.4646671159 0  262236.3944351029 595831.1252656333 0  241846.246678 605206.1436625 0  240200.622106 608424.8903290001 0  240943.4862974102 610939.7757535663 0  236550.6094 599787.3577085 0  238528.1212051503 608102.9081793013 0  244413.4891967989 572609.5960859474 0  236382.0474488751 598808.3067022427 0  235369.601910944 600933.5380148316 0  235413.099011 591037.3503485 0  235446.2251831186 590266.6553871984 0  240475.5921005 578037.3333535 0  240413.173949154 577324.4280286073 0  240574.037899 606283.0066440001 0  263857.9179445 593618.2891454998 0  264153.4303974913 593343.916675058 0  242042.1833925 604946.7714812499 0  241650.3099635 605465.51584375 0  244613.6985165 572229.6575395 0  236631.8579695 598822.2989335 0  235140.029068 600860.444221 0  241767.7287175 604874.0596705 0  242140.15174975 604817.0853906251 0  234781.8558075 600573.1668855001 0  242091.167571125 604881.9284359375 0  234519.3558565 600373.162719 0  254604.8337712102 583989.0014118921 0  250699.5846056537 594617.3297041012 0  250540.4796469513 602258.2940568649 0  248483.7490186612 580334.7345534252 0  258549.2190328319 577893.951823392 0  257067.0067473103 590016.5327808241 0  243285.0921999099 596333.923437875 0  248333.1386145258 589098.0389905117 0  256142.8445072741 595883.3911551933 0  260245.1368072523 583315.2785712298 0  253472.3380211276 578932.2908163272 0  246432.3347504817 599884.5019511909 0  261555.9240922556 588041.186709004 0  247293.1100123104 605823.8307887657 0  246458.2798550911 593168.8646574575 0  252840.0183145193 588226.5564648228 0  249828.2874404451 584740.7888937403 0  255409.5660975206 600458.8956828594 0  260819.9733392385 574219.403683011 0  252584.2262054711 605722.6603825617 0  254049.8830611471 592547.4852571967 0  250015.4356193061 598425.2225922942 0  245872.072249477 577604.9761853142 0  262002.1583249522 579753.4663046852 0  257732.6630933878 586227.970805314 0  250242.5556457866 577017.3316409125 0  244921.6453001869 581816.6358421432 0  256520.3890639471 580904.824006648 0  240779.0970645865 599524.6679555867 0  257100.1829219198 574459.5922545703 0  239912.2630002034 595231.1172704464 0  244703.0875078634 590068.6945953515 0  242549.5490268674 592874.3693043783 0  251586.0465921376 581796.2215047925 0  246643.189997516 596527.447801719 0  251049.7658069622 591057.6752245198 0  253014.5731561695 596998.6601086652 0  238680.2197353724 584542.2309791476 0  259715.365803504 591937.1938619445 0  254097.157218761 575731.4494927844 0  246806.6408589328 586139.0877599345 0  246136.1179750556 602959.471719323 0  253520.7033332401 602835.180253843 0  244125.4295793909 607538.9817227355 0  252546.8895354472 599881.3279113505 0  258289.0983523553 600397.640191779 0  247518.7952199645 583037.3718217331 0  263140.3959879661 582529.2228421422 0  262894.8586894067 585442.3590432997 0  256968.6320599076 593040.7691844478 0  243573.0187527719 600218.2795730785 0  258888.5766127351 595139.7745218446 0  262588.7569809347 576734.8569237856 0  259318.4257992262 580601.2540325444 0  249963.3812725965 607065.7205847671 0  257494.5307999607 583482.5893534871 0  258906.4757205145 572278.8089438241 0  237751.446593475 587300.5805003279 0  255142.4708720699 604956.7580261135 0  258485.4978753244 597756.9250383095 0  255516.7820591553 587791.39641967 0  239758.4692108706 601926.8203218657 0  255873.0092222999 577739.5085867504
[...]
<PointData  Scalars="f_24704-1"> 
<DataArray  type="Float64"  Name="f_24704-1"  format="ascii">4.1433122642832949e+01  4.2757569127167635e+01  4.4765222728178593e+01  4.6604720120217173e+01  4.7953584659323411e+01  5.0008551516645824e+01  5.0681674662088447e+01  5.1109399879763686e+01  5.1160335421991718e+01  5.1847085364929441e+01  5.2303377372977373e+01  5.2104171856544994e+01  5.2236307613893374e+01  5.4709366055704805e+01  5.6147429527923308e+01  5.7340400651628997e+01  5.8831561225720989e+01  6.0321643574446327e+01  6.0265893225774782e+01  6.0732717670805648e+01  6.2922245285835622e+01  6.4656241205947339e+01  6.6641356639334404e+01  6.7681482997080423e+01  6.8237138476620217e+01  6.9550329341627275e+01  6.9929606458021098e+01  7.0668980746980509e+01  7.2030317261086893e+01  7.2832484118006064e+01  7.3010814598784023e+01  7.3438176039796318e+01  7.4546817178797028e+01  7.5473155125891836e+01  7.5650674798663744e+01  7.6560853005710371e+01  7.7829411672635374e+01  7.9171049911546831e+01  8.0131328549652991e+01  8.0938406753233764e+01  8.2150049079702157e+01  8.3293647228827865e+01  8.4309481217692181e+01  8.5197135879761987e+01  8.5982098800662826e+01  8.6146677675472318e+01  8.6569256441448772e+01  8.7116946315654786e+01  8.7552087677902776e+01  8.7755163565758906e+01  8.7796692577265517e+01  8.7836757866643410e+01  8.7819229528585353e+01  8.7904412683043915e+01  8.8121270192977022e+01  8.8104415128507782e+01  8.8107615147860969e+01  8.8198197884960308e+01  8.7961156130945398e+01  8.7225541795857211e+01  8.6400886231596843e+01  8.5722888163712824e+01  8.4636969295954088e+01  8.2884882458451827e+01  8.2689169731153569e+01  8.4900559056990218e+01  8.5471011426847724e+01  8.5601516196314648e+01  8.5753939848020750e+01  8.5968201087914053e+01  8.6254169178264590e+01  8.7312890807626019e+01  8.7720517400951437e+01  8.7958415767047214e+01  8.8012779795119272e+01  8.7749393481615513e+01  8.7143077978344706e+01  8.6540518922604633e+01  8.5920101328354320e+01  8.6300654005042091e+01  8.6608544938453463e+01  8.7036368058892620e+01  8.7159806200853723e+01  8.7152281846577509e+01  8.7198866779997886e+01  8.7171875460320933e+01  8.6887099659281020e+01  8.5977228508063689e+01  8.4483152349089707e+01  8.4314273628910186e+01  8.5806216846883487e+01  8.6449793740845351e+01  8.6643680600507565e+01  8.6495931622448495e+01  8.6583526705013099e+01  8.6427792113585625e+01  8.6414453013079068e+01  8.6210782116436860e+01  8.6121739189043424e+01  8.5832394986346813e+01  8.3554109300160817e+01  8.1165214908779717e+01  7.8062788720776325e+01  7.5095976851775021e+01  7.2261966464949253e+01  6.9925366949802722e+01  6.8100514066612178e+01  6.6435342058410583e+01  6.4742771141783621e+01  6.3202379625731510e+01  6.1269845371478027e+01  6.0582170412678693e+01  6.1010475646990862e+01  6.3978851598813790e+01  6.6302755629171003e+01  6.7243422354672404e+01  6.8208105692163969e+01  6.9907269354020755e+01  7.2236900615543433e+01  7.4961138376814844e+01  7.5742210134759489e+01  7.5750881151101495e+01  7.4574256698266481e+01  7.2288997404220126e+01  7.1874168659470584e+01  7.3935900795787859e+01  7.5337284427834675e+01  7.5820257224334341e+01  7.5824932314625002e+01  7.4324596920380088e+01  6.9631596694113568e+01  6.8912053278748573e+01  6.7843719889206866e+01  6.7262105633243195e+01  6.6355073983758089e+01  6.5220748199644035e+01  6.3851456363521109e+01  6.2530148333373141e+01  6.1354693066186968e+01  6.0853698717801400e+01  6.0556157127565143e+01  6.0451898298276127e+01  6.0134722156819620e+01  6.0040491527283834e+01  6.0051710690440288e+01  6.0485382465425253e+01  6.1125936448596207e+01  6.1212139459519818e+01  6.0019556364975713e+01  5.8706960499490663e+01  5.7491603016193409e+01  5.6749816136860638e+01  5.6423191853362610e+01  5.4929557119489083e+01  5.3572246168861014e+01  5.2345059751578873e+01  5.1961947341547329e+01  5.0794004538701529e+01  4.9325295054871347e+01  4.9393027308253330e+01  4.8891200372655405e+01  4.8055364027305380e+01  4.6124195884895748e+01  4.3881726641267143e+01  4.2440901425810097e+01  4.0845381203753497e+01  3.9517998097764931e+01  3.8248755109038434e+01  3.7512146412090090e+01  3.7056209960722832e+01  3.6035223127978384e+01  3.5430099650964912e+01  3.5361519569827912e+01  3.5259752017002299e+01  3.4748185049039193e+01  3.4303636486790957e+01  3.3938609548335094e+01  3.7492110199850543e+01  4.3950654633287265e+01  3.7644923443040078e+01  3.4857221721065038e+01  3.3087988667099054e+01  3.3264676300127178e+01  3.3276890670813927e+01  3.2953080764565435e+01  3.2542694380242075e+01  3.2168337910502999e+01  3.2218240661570718e+01  3.2723861235598164e+01  3.3501600866675631e+01  3.4271167314276802e+01  3.5031485173000611e+01  3.6004437326429887e+01  3.6491687276293639e+01  3.7109811033035193e+01  3.8464914521854070e+01  4.0278880824604549e+01  4.1205433390414889e+01  4.0957217878643952e+01  4.0910709032398309e+01  5.2250880012710439e+01  6.0483578615748279e+01  8.5234496840731936e+01  8.7657794803377541e+01  8.8093825832670433e+01  8.5261085199304190e+01  8.7937109362843586e+01  4.9225849782382824e+01  8.5068804249779603e+01  8.6606306768465245e+01  7.3448426535882533e+01  7.2655522972025722e+01  6.0199464681946573e+01  6.0059857362808486e+01  8.6855644235086416e+01  5.2250997725325725e+01  5.2124904918582736e+01  8.4949072494500541e+01  8.5495891100132553e+01  4.9224903354193629e+01  8.4170721746387500e+01  8.6606371689386009e+01  8.5627624409644625e+01  8.4797176060161291e+01  8.6552504213913167e+01  8.4873962841284467e+01  8.6551868678095346e+01  4.9104214403594050e+01  6.6744252639344197e+01  7.5847473639969309e+01  5.1480564084051572e+01  3.6389271801487546e+01  5.2774294217984810e+01  7.5196048552018851e+01  6.1089571913663626e+01  6.4471690895787503e+01  4.2082917785780630e+01  4.2848728182520652e+01  7.5374648354301939e+01  4.6726883974340446e+01  8.2148146906090631e+01  6.7561094362237142e+01  5.4061710148362479e+01  5.6606270107619260e+01  6.8790455861432292e+01  3.3747707396790410e+01  7.8137847923617642e+01  6.1602119699068204e+01  7.0535842896618377e+01  5.2177695905229569e+01  3.6790331883660535e+01  4.6679793362048301e+01  4.5030408417330456e+01  5.7595523918172304e+01  4.2832147299871316e+01  8.1340483021482697e+01  3.6650287357829903e+01  7.5896147122319206e+01  6.4382716430369285e+01  7.0149853289310457e+01  5.0731375094521020e+01  7.2602012346364148e+01  6.0256336062403356e+01  6.7767086606690015e+01  6.4924497473912083e+01  5.5774040646717289e+01  3.8611692474840588e+01  5.9689674964825706e+01  7.9808213565594670e+01  7.4627205723025469e+01  8.5630665001955848e+01  7.1070405648998602e+01  6.9566386813286130e+01  5.6350426823093834e+01  3.9542201614703863e+01  4.1801207124452581e+01  5.9397702543618685e+01  7.9233994839005518e+01  6.1091902671876149e+01  3.5186431020982461e+01  3.8879085990045184e+01  8.1302559837284576e+01  4.5119682912627553e+01  3.2237275060213989e+01  6.7858868867552246e+01  7.5995800550215804e+01  6.5367467084913102e+01  4.8763805732437724e+01  8.5261453222830497e+01  3.8261820341386006e+01  5.0980133471094270e+01  6.0036010515287771e+01  6.5325918206229943e+01  5.6440758997440575e+01  4.7064608899885982e+01  4.3855539400463591e+01  5.6051128677767494e+01  4.7961620010406897e+01  4.7823234626158040e+01  4.4714899969549172e+01  4.9289100073793193e+01  8.4680052902170303e+01  7.8657763064624149e+01  5.3013843254941044e+01  8.3261556253984963e+01  7.5894118657718508e+01  7.3654170936528033e+01  8.0669321001752905e+01  6.2698488583504613e+01  5.9193827712030426e+01  6.6135414056426114e+01  7.2395889217996796e+01  5.7949572574780071e+01  7.8318913663443695e+01  5.0311246788125999e+01  6.5633834458414498e+01  3.2649620374481778e+01  4.9237831985913310e+01  6.8988043961267849e+01  7.7630110251586117e+01  6.3516307395252575e+01  7.1045016178055462e+01  6.2005719122718965e+01  7.1772129036336892e+01  3.5699688119084897e+01  5.3189556327029919e+01  5.3430371069134004e+01  7.9912208476224478e+01  6.7259164907493044e+01  3.7485973981915834e+01  7.9464986795437113e+01  6.3580645883348467e+01  8.4384436624756290e+01  3.3467767418330688e+01  8.4918460469596852e+01  8.4844259624308492e+01  5.5347632396213719e+01  5.1039902981507680e+01  8.4915016704951810e+01  8.5908321130826451e+01  8.3064990183657713e+01  8.5221725026642972e+01  7.1577592536194970e+01  3.6164490344742681e+01  8.0899924285026913e+01  7.5982619675448205e+01  5.6218295570505639e+01  5.0618867043873138e+01  4.7381755786989679e+01  8.5646779306530590e+01  8.4837232183537353e+01  5.8519169312449826e+01  8.5971536558337831e+01  8.3841784063129538e+01  8.4342956359643736e+01  8.6056783899629167e+01  5.9852639873870160e+01  4.9107850908446125e+01  7.1290555792073334e+01  3.4262946054619462e+01  4.9169499608584673e+01  3.6576244601094238e+01  6.9291947312840037e+01  8.7429870912929658e+01  6.6792133339913576e+01  7.2849211770651735e+01  8.3539430453379680e+01  6.0167897660945542e+01  3.2458356718597109e+01  7.2118720730847599e+01  3.9534666739437398e+01  5.2424724735941176e+01  8.4988801623434398e+01  8.3015176276605914e+01  6.2144601164499008e+01  8.7434959207529431e+01  4.3817391425377600e+01  8.5526752786315924e+01  6.3996049632847154e+01  3.2594400201993331e+01  3.6335110494035568e+01  3.7478058889443915e+01  7.2612018928713752e+01  8.1961831090020482e+01  8.1282046388720772e+01  6.8790286399511587e+01  8.5374650293704505e+01  6.0161468154524442e+01  4.9098531780767395e+01  4.9087746688761818e+01  3.3101671222777647e+01  8.4912074833311209e+01  8.5094731895640606e+01  8.5166804941770508e+01  7.5713047736389214e+01  8.1695016250163334e+01  8.5231594724428305e+01  8.3664493428735938e+01  6.7040481322159607e+01  8.8043294485880736e+01  8.7990829164272157e+01  6.1234659188530436e+01  3.5088880321562492e+01  6.1086923147234032e+01  8.2188086236126040e+01  5.6076365153100184e+01  6.4738383673944881e+01  8.7627373179096921e+01  6.1916317981427810e+01  7.3502388970368912e+01  4.0950716603689507e+01  5.6478021812897424e+01  5.5705476800977209e+01  5.7100960112883982e+01  8.5991330178025692e+01  5.0457864347027595e+01  5.1335901649285439e+01  4.9491173405026416e+01  5.1205307457098407e+01  4.7498077065192923e+01  3.2923872031503095e+01  3.1458755881361167e+01  5.2374388520214936e+01  5.5080025691529414e+01  7.5494741959186300e+01  7.5418365403207304e+01  8.7846508018895847e+01  6.7047551397897976e+01  6.4834448882497512e+01  6.0760263960713623e+01  6.0339457930112303e+01  6.0447612136854168e+01  6.0671786689553841e+01  6.0340822396087049e+01  6.0384329271954975e+01  6.2351289182810341e+01  6.0541065077352442e+01  6.1209085798755559e+01  6.4163595896617963e+01  6.2541371379188362e+01  5.8730554014046895e+01  6.0232859449822094e+01  4.4910912753941723e+01  4.6575354864923320e+01  4.4735748493471085e+01  4.3159284433763844e+01  4.3663960932007335e+01  4.1690628470855927e+01  4.2935922366267775e+01  4.2242662342213428e+01  3.8999794008399334e+01  3.7831105849720927e+01  3.4126375792783755e+01  3.4639132307965056e+01  3.4569525802937434e+01  3.5503422391492492e+01  3.4973534576851520e+01  3.6253231567710351e+01  3.6248202350439264e+01  3.5466987464749295e+01  3.6802535614102226e+01  3.6449369249979000e+01  3.7277659369154954e+01  3.6709438687606216e+01  3.8012604568038100e+01  4.0325631332696247e+01  3.8940667576532746e+01  4.6751667561971864e+01  4.6494922267545633e+01  4.6790598884189343e+01  4.9920532682368972e+01  6.7793973632689443e+01  6.7149872616435658e+01  6.6254266858555454e+01  6.7711385168485208e+01  7.3861644125345663e+01  7.7314708590593426e+01  7.4846311828428711e+01  7.6948270795553853e+01  5.4101356012469182e+01  4.9904487712125857e+01  5.0078681259297639e+01  5.2073113163921491e+01  3.6794988078117576e+01  3.8475487114006590e+01  3.6714675531698681e+01  3.7302676366265509e+01  3.6896948718832803e+01  3.6176254000000711e+01  5.4671254243023803e+01  5.6255324930667733e+01  5.0492198273447272e+01  5.3887924170428782e+01  5.0829449867660983e+01  7.5591353717107893e+01  7.2802452753304010e+01  6.0313547364846336e+01  6.0202681194602263e+01  6.2582544953536228e+01  5.9669718872923681e+01  6.2294726125992845e+01  6.0935058644463204e+01  6.3298273494122824e+01  6.6237611072100307e+01  6.5169769116395500e+01  3.8517907775653519e+01  4.0124131502344369e+01  4.1913010441808893e+01  4.0615922098153668e+01  4.3398164771148814e+01  4.2714496016584661e+01  4.7237022789066913e+01  3.9912363876675208e+01  4.0309117824819118e+01  4.5078923174468422e+01  4.5484659688680473e+01  7.2696486733635126e+01  7.7361148245360113e+01  7.4048156511692355e+01  7.8208638707232680e+01  8.1097919860162705e+01  7.0415352521442543e+01  6.5394996734583088e+01  6.9231054345096240e+01  6.7196186862439021e+01  5.1009388739196034e+01  5.4906816549430275e+01  5.6025261603140201e+01  5.1462041529544962e+01  7.1914767676885347e+01  6.9137293595242824e+01  6.9335100568520673e+01  6.6738679425759599e+01  3.5126201655478916e+01  3.4289998911988270e+01  6.1419770272411469e+01  6.0324310778193599e+01  5.9094178557916756e+01  7.1236936984315278e+01  6.8928988936282195e+01  7.2380344474912363e+01  6.9130640250958379e+01  5.4210201902880144e+01  5.0257263568643921e+01  5.0547860345095486e+01  5.2315933609970827e+01  5.0884972167663179e+01  5.2619052755417108e+01  3.7574194242459960e+01  3.6402754302471024e+01  3.7421783805584290e+01  3.6431111928330182e+01  3.6971780626132563e+01  3.6799300052655802e+01  4.5859789976393230e+01  4.7206208369094703e+01  4.7726511526848682e+01  4.7212939258122326e+01  4.0868937463071852e+01  4.6319549875368324e+01  4.6331486902758094e+01  4.7407346983161020e+01  4.1679486877331072e+01  4.4281188648159940e+01  5.7135867887533450e+01  5.9020942088967935e+01  5.6754566964426800e+01  5.5785437243872700e+01  4.0672561438929812e+01  4.4360182516304391e+01  3.9924350696522914e+01  4.4946834689872084e+01  3.7690408902303723e+01  3.4866051056561815e+01  3.7506350386298323e+01  3.6170188016009966e+01  3.6410029119989858e+01  3.5550597283778529e+01  3.7111679555209626e+01  6.3473331087653868e+01  6.3082584132506383e+01  6.5674342606598969e+01  6.5912629146117766e+01  7.0567382191719389e+01  4.8967531911914094e+01  4.9414152434291502e+01  7.0723062070629311e+01  6.2659190711006836e+01  5.9267199199182762e+01  5.8550630378937448e+01  6.1962859174265425e+01  6.8996260982912219e+01  6.7023497267759780e+01  6.3715615557311537e+01  6.3465339418145930e+01  5.7521322486452988e+01  5.2657574542461923e+01  3.8677321310720430e+01  3.8830873532337179e+01  3.7998185824530957e+01  5.9215574885329964e+01  6.0699656075409685e+01  7.6326870379385213e+01  7.8914288150702589e+01  7.2792294653751767e+01  7.6700108489192118e+01  7.3230711288839046e+01  7.3188276390485484e+01  6.7728290662196343e+01  6.7357089820403033e+01  5.5051387925273374e+01  3.8439396917590038e+01  5.7402873707096170e+01  5.9040755398802368e+01  3.5307653645293406e+01  3.6067806538800070e+01  3.5193402108809629e+01  4.2403803504150787e+01  4.4921278908541019e+01  5.2037421152200039e+01  4.8535573195954989e+01  4.8910962749153903e+01  5.0549330668007443e+01  5.9725695980411416e+01  6.0026745112354448e+01  6.0624982793559333e+01  6.0748208890354825e+01  6.4540813586816583e+01  6.4208027379683784e+01  5.4739743602534553e+01  5.0246353263879811e+01  4.8505931070621074e+01  5.0824425704037580e+01  4.8594406947319349e+01  4.5706152062039060e+01  4.7052958584838244e+01  5.5508522254625191e+01  5.2097899678942440e+01  7.5871295467152649e+01  5.4056645439922434e+01  5.0918948963239778e+01  6.2144300605007096e+01  6.5018219490677325e+01  6.9084723633497262e+01  6.7077564869392958e+01  3.7016209913334272e+01  3.4213207734290350e+01  3.6905940386660689e+01  5.9988842805506330e+01  3.5912599334808974e+01  6.0775456309220729e+01  4.1692447068375664e+01  3.8312096395152331e+01  6.1510431059508150e+01  4.8136969914524208e+01  6.7733934758801411e+01  3.6552728950147468e+01  3.7027110109098828e+01  3.6409557473576065e+01  3.6559515720659320e+01  3.6341965506241422e+01  6.1560168656877387e+01  4.3037452109470230e+01  4.5094904983959140e+01  4.4134609745069682e+01  7.5552523731805579e+01  5.8011415401789563e+01  5.2499354312917056e+01  5.2603000301545350e+01  5.3730457525394506e+01  3.4971653336586996e+01  6.8922375467741773e+01  6.9538000124801798e+01  3.7282978397383324e+01  3.7011603063348481e+01  4.6392861107936568e+01  4.6672477683622716e+01  4.2823774054586508e+01  5.6571410772346589e+01  5.9986768637478569e+01  6.1347947153558223e+01  5.9101321790487660e+01  6.2158954766772055e+01  3.9473426111887655e+01  3.8113707484480386e+01  3.8658176887664347e+01  3.8313645119549641e+01  6.9325563796366680e+01  3.8036626749666816e+01  3.9701690119712040e+01  4.0597689918565564e+01  4.9489164110204989e+01  4.9749226782424351e+01  5.0189210132275903e+01  4.8409818214292493e+01  3.9231753861545094e+01  3.7709553030190591e+01  3.8517830828287764e+01  4.8962392468778532e+01  7.3026283087847062e+01  7.3693514131012236e+01  7.4753149803932345e+01  6.2380373454582717e+01  6.6669431119423834e+01  5.2042409377933240e+01  4.9601365534948847e+01  4.8820015108652221e+01  5.0090753509296924e+01  6.4139852272779024e+01  6.1251544794268625e+01  6.1941036941886665e+01  3.6249567519985526e+01  3.6013445083532240e+01  3.5880094032931090e+01  5.2614228469816453e+01  5.4487346487587551e+01  5.4009266316626594e+01  5.1899412294462529e+01  6.6107977243104315e+01  3.6060979190919156e+01  3.6326460023761200e+01  3.6256479443128001e+01  6.0578867400055039e+01  6.0336880292700954e+01  6.0400173338894710e+01  4.2804410220558132e+01  4.4009488081804570e+01  4.4712829190595798e+01  3.7533882053113771e+01  3.5276207960089366e+01  3.5602826901091873e+01  6.1477841714391708e+01  6.2905343685566606e+01  6.2093848393984437e+01  6.1271441544602496e+01  6.1294094413583714e+01  6.1667030417283300e+01  6.0957833420216261e+01  4.5112948974335922e+01  3.5684413491126861e+01  4.6971212057514578e+01  6.8347181775573830e+01  5.1018964319247530e+01  5.0456578929217741e+01  3.6408198855491612e+01  3.7424209189862339e+01  3.7466292643985128e+01  3.8687051645749577e+01  3.8035773550895122e+01  3.7119891474541106e+01  5.0489352278421727e+01  4.9327363624096158e+01  4.9613349789928662e+01  6.1159251351720840e+01  6.1496024039699492e+01  3.7838402480208003e+01  3.8685696869986423e+01  4.1299074165988934e+01  4.1852889666142815e+01  4.6406687757906781e+01  4.0134051535101221e+01  4.0061747983182812e+01  3.9274974628148890e+01  4.7617537724174532e+01  7.5015641506800591e+01  5.1413003179860198e+01  5.3432804839703955e+01  5.2719471799360058e+01  6.7589169026021125e+01  6.8257427303906397e+01  6.6922561119648449e+01  5.1368793392851934e+01  5.3457797868397314e+01  5.1523149473539569e+01  4.4957722008410364e+01  5.5390476840698092e+01  5.5122843210664584e+01  3.8170480970352727e+01  3.7821100193587682e+01  6.4496492220063629e+01  6.4176853299502753e+01  6.5262184024797918e+01  3.8364498612164169e+01  3.5999912955637413e+01  </DataArray> 
</PointData> 
</Piece>
</UnstructuredGrid>
</VTKFile>