<?xml version="1.0"?>
<VTKFile type="UnstructuredGrid"  version="0.1"  >
<UnstructuredGrid>
<Piece  NumberOfPoints="784" NumberOfCells="1320">
<Points>
<DataArray  type="Float64"  NumberOfComponents="3"  format="ascii">266913.131276 586512.314988 0  266738.13716 587762.325998 0  266363.132677 589012.328643 0  266175.641078 590169.601714 0  265666.575631 591040.7699119999 0  264875.64001 591687.766419 0  264900.636161 591845.049083 0  266088.14152 592012.3229499999 0  265561.959259 592661.17101 0  264288.136855 593037.368683 0  263865.194033 593999.8486949999 0  263850.641856 593236.729596 0  263625.634872 592756.525286 0  262689.574249 593299.848918 0  262475.636737 594003.0907310001 0  261934.554452 594340.929792 0  261725.631329 594932.094409 0  261729.256443 595728.498809 0  262138.136044 595012.330523 0  262288.141035 596262.333669 0  261488.994028 597511.480605 0  261234.15567 598316.338928 0  260815.635063 599014.863821 0  261400.643658 599389.7367680001 0  261322.963374 600022.185065 0  261119.455248 600931.061306 0  261607.436504 601293.0629359999 0  260807.446929 602089.899812 0  260025.642878 602988.868697 0  259613.135827 603937.3854499999 0  259050.643123 604100.987861 0  258411.880065 603988.6335979999 0  257764.357469 604449.872569 0  257971.239668 605320.429125 0  258041.396867 605740.635381 0  257188.143339 606987.394312 0  256038.141198 608112.3554550001 0  254788.141633 609087.4026939999 0  253588.140656 609812.362881 0  252338.135706 609737.4048949999 0  251088.138116 609787.404055 0  249963.12851 610287.399466 0  248613.130524 610462.365857 0  247363.132198 610687.407659 0  246113.130532 610837.411551 0  245832.347438 610918.209918 0  245016.946433 610958.5639439999 0  244313.129646 610762.372259 0  244400.622144 611378.093316 0  243939.669208 612460.8930899999 0  242960.649733 611984.892792 0  242170.381438 611919.647351 0  241888.122919 611112.375656 0  241393.380757 610467.6456149999 0  240594.157528 611306.369822 0  240525.621947 610804.648112 0  240363.123632 610512.3745050001 0  239113.123247 610262.374278 0  239813.12126 609037.412459 0  240588.122952 607812.368199 0  241013.119545 606625.9534560001 0  241454.373249 605724.888025 0  242238.120107 604687.3993 0  243088.121248 603462.362766 0  242860.319451 603007.3932640001 0  241563.116617 603812.361344 0  241778.400913 604327.642217 0  242059.837234 604824.879102 0  241475.620201 604923.2402390001 0  241462.182234 605449.881372 0  240906.219606 605674.888222 0  240241.856192 606891.125066 0  239891.734044 607841.012479 0  239048.653431 608724.889805 0  238118.054545 608974.895967 0  238888.111029 607337.406468 0  239738.119992 606212.362729 0  240288.12044 605687.4075229999 0  240380.212307 604729.521696 0  239347.309632 604603.204501 0  238888.112036 604387.408787 0  237913.11173 604687.401386 0  236784.172023 604499.882783 0  236883.408793 603717.08334 0  236154.933927 603595.565605 0  235688.103943 602912.369264 0  235763.108033 601662.366516 0  236363.110805 600412.35884 0  236738.107995 599162.356577 0  236525.607944 598482.2412899999 0  236138.109208 599362.357613 0  235725.063048 600325.4466510001 0  235091.948926 601408.5220979999 0  235188.10921 600312.366344 0  234375.602405 600833.9674270001 0  234663.109308 599912.358011 0  234138.105122 600062.365644 0  233955.307245 599029.561063 0  233338.103791 598387.401556 0  233988.09795 597862.356384 0  235138.101489 596637.3947750001 0  235563.1039 595387.392428 0  236513.103639 594212.356312 0  237163.10684 592987.3929869999 0  238313.103031 591862.3515540001 0  239513.107028 590812.3512640001 0  240638.102135 589787.387271 0  241463.109549 588587.378486 0  242294.489816 587443.735215 0  242913.101099 586512.341804 0  243544.066915 585474.859604 0  243040.448415 585184.975583 0  242438.10214 585337.38015 0  241313.102353 586562.339499 0  240538.107104 587787.382449 0  240114.641085 588588.939407 0  239388.100256 589437.382238 0  238188.104456 590512.346358 0  236938.100507 591362.349798 0  235813.10453 592537.396388 0  234864.502938 593178.7753880001 0  234463.097651 592862.357267 0  235113.0965 591662.3545979999 0  235713.101522 590412.346099 0  235777.688431 589976.7582779999 0  234943.583145 590706.265132 0  234462.482256 591490.2841159999 0  233801.497784 592112.940187 0  233388.099101 591787.394208 0  234013.093099 590437.393065 0  234776.217248 587148.7548100001 0  235163.093726 586562.3486189999 0  235313.098918 585483.229012 0  235250.59732 584662.298153 0  235588.093896 583337.379493 0  236329.432041 582199.858992 0  237188.096234 581462.3349939999 0  237463.088521 580212.335511 0  238350.592558 579057.652616 0  238591.415797 578574.847681 0  238313.094106 577612.328905 0  239229.696732 577695.769664 0  240195.161018 577513.008613 0  240614.996733 577149.8518770001 0  240663.091715 577412.332622 0  240288.092486 578662.334085 0  239942.357258 579508.095811 0  240438.100019 580212.3334220001 0  241338.095553 580387.375355 0  241238.099828 579137.369157 0  241788.097003 577887.370889 0  241983.554649 577241.9220939999 0  242054.178239 576927.8105029999 0  242588.100699 575737.366175 0  243149.324833 574898.583978 0  243695.278626 573919.517981 0  244268.494418 573724.8454239999 0  244995.134063 573930.2767810001 0  245417.314363 573391.601898 0  243450.599125 571859.479773 0  245776.797908 572599.8353060001 0  246779.639852 572973.285167 0  248034.741935 573186.082054 0  249413.10651 573162.3205520001 0  250496.922226 573271.1521899999 0  251613.105126 573237.3551319999 0  252421.824577 572846.032906 0  253256.245022 572580.4733130001 0  253739.471933 571960.9547369999 0  254174.511864 572149.8346569999 0  254484.944333 571684.194807 0  254384.108649 570891.346712 0  254344.002752 570218.26407 0  255025.609604 570829.0294979999 0  255715.005913 570489.264586 0  256218.846343 570774.828355 0  256834.349083 570508.5908 0  257390.092515 570014.308325 0  257624.431042 568493.478911 0  259355.811717 569380.021819 0  260033.372814 569617.066669 0  262679.741751 570320.699974 0  263289.115756 569524.817815 0  263463.114338 570512.301061 0  264638.198419 570687.3443539999 0  265058.220065 571334.378467 0  265447.561421 572077.90485 0  265488.125257 573137.3446020001 0  265131.937715 573963.293593 0  265432.389648 575093.068786 0  265638.122314 576338.029955 0  265750.630817 577371.8281319999 0  265738.570663 578561.9098850001 0  265875.630866 579139.630549 0  266213.129247 579862.311842 0  266563.130472 581112.314509 0  266238.135356 582362.310259 0  265938.12863 583612.320897 0  265738.131342 584762.3210189999 0  266875.638633 585365.358768 0  264018.7239399826 593650.4646671159 0  262236.3944351029 595831.1252656333 0  241846.246678 605206.1436625 0  240200.622106 608424.8903290001 0  240943.4862974102 610939.7757535663 0  236550.6094 599787.3577085 0  238528.1212051503 608102.9081793013 0  244413.4891967989 572609.5960859474 0  236382.0474488751 598808.3067022427 0  235369.601910944 600933.5380148316 0  235413.099011 591037.3503485 0  235446.2251831186 590266.6553871984 0  240475.5921005 578037.3333535 0  240413.173949154 577324.4280286073 0  240574.037899 606283.0066440001 0  263857.9179445 593618.2891454998 0  264153.4303974913 593343.916675058 0  242042.1833925 604946.7714812499 0  241650.3099635 605465.51584375 0  244613.6985165 572229.6575395 0  236631.8579695 598822.2989335 0  235140.029068 600860.444221 0  241767.7287175 604874.0596705 0  242140.15174975 604817.0853906251 0  234781.8558075 600573.1668855001 0  242091.167571125 604881.9284359375 0  234519.3558565 600373.162719 0  254604.8337712102 583989.0014118921 0  250699.5846056537 594617.3297041012 0  250540.4796469513 602258.2940568649 0  248483.7490186612 580334.7345534252 0  258549.2190328319 577893.951823392 0  257067.0067473103 590016.5327808241 0  243285.0921999099 596333.923437875 0  248333.1386145258 589098.0389905117 0  256142.8445072741 595883.3911551933 0  260245.1368072523 583315.2785712298 0  253472.3380211276 578932.2908163272 0  246432.3347504817 599884.5019511909 0  261555.9240922556 588041.186709004 0  247293.1100123104 605823.8307887657 0  246458.2798550911 593168.8646574575 0  252840.0183145193 588226.5564648228 0  249828.2874404451 584740.7888937403 0  255409.5660975206 600458.8956828594 0  260819.9733392385 574219.403683011 0  252584.2262054711 605722.6603825617 0  254049.8830611471 592547.4852571967 0  250015.4356193061 598425.2225922942 0  245872.072249477 577604.9761853142 0  262002.1583249522 579753.4663046852 0  257732.6630933878 586227.970805314 0  250242.5556457866 577017.3316409125 0  244921.6453001869 581816.6358421432 0  256520.3890639471 580904.824006648 0  240779.0970645865 599524.6679555867 0  257100.1829219198 574459.5922545703 0  239912.2630002034 595231.1172704464 0  244703.0875078634 590068.6945953515 0  242549.5490268674 592874.3693043783 0  251586.0465921376 581796.2215047925 0  246643.189997516 596527.447801719 0  251049.7658069622 591057.6752245198 0  253014.5731561695 596998.6601086652 0  238680.2197353724 584542.2309791476 0  259715.365803504 591937.1938619445 0  254097.157218761 575731.4494927844 0  246806.6408589328 586139.0877599345 0  246136.1179750556 602959.471719323 0  253520.7033332401 602835.180253843 0  244125.4295793909 607538.9817227355 0  252546.8895354472 599881.3279113505 0  258289.0983523553 600397.640191779 0  247518.7952199645 583037.3718217331 0  263140.3959879661 582529.2228421422 0  262894.8586894067 585442.3590432997 0  256968.6320599076 593040.7691844478 0  243573.0187527719 600218.2795730785 0  258888.5766127351 595139.7745218446 0  262588.7569809347 576734.8569237856 0  259318.4257992262 580601.2540325444 0  249963.3812725965 607065.7205847671 0  257494.5307999607 583482.5893534871 0  258906.4757205145 572278.8089438241 0  237751.446593475 587300.5805003279 0  255142.4708720699 604956.7580261135 0  258485.4978753244 597756.9250383095 0  255516.7820591553 587791.39641967 0  239758.4692108706 601926.8203218657 0  255873.0092222999 577739.5085867504
[...]
<PointData  Scalars="f_32-1"> 
<DataArray  type="Float64"  Name="f_32-1"  format="ascii">4.1424518523506833e+01  4.2723253789223008e+01  4.4696554602473547e+01  4.6495914470609513e+01  4.7830316677005591e+01  4.9878903145706104e+01  5.0539123512788464e+01  5.0984772445799237e+01  5.1022006491615478e+01  5.1620442231920002e+01  5.2004135213305965e+01  5.1848555963455368e+01  5.2043954175309985e+01  5.4570471390690969e+01  5.6010669427204952e+01  5.7244350766159428e+01  5.8762424683730401e+01  6.0262406061885969e+01  6.0231921861028674e+01  6.0661670219450478e+01  6.2784942336465996e+01  6.4492205198150444e+01  6.6480007935780193e+01  6.7502770324737455e+01  6.8043062474089368e+01  6.9319932422783879e+01  6.9686357874098078e+01  7.0388372068089978e+01  7.1697926210792531e+01  7.2480166196240916e+01  7.2664819227269277e+01  7.3124182644672686e+01  7.4277336265012778e+01  7.5204401798468311e+01  7.5380401983110389e+01  7.6283675704518870e+01  7.7526732020823033e+01  7.8832809915909849e+01  7.9762745811115408e+01  8.0563927811377624e+01  8.1762132838365773e+01  8.2891131379741907e+01  8.3902851333293086e+01  8.4790510145826616e+01  8.5578938534567300e+01  8.5744879500466652e+01  8.6172202746872529e+01  8.6721081046818981e+01  8.7147169993833131e+01  8.7344294132909283e+01  8.7383189473309926e+01  8.7421303589519425e+01  8.7407223027214201e+01  8.7491088897391720e+01  8.7694898250231915e+01  8.7679162787202245e+01  8.7682191867370278e+01  8.7766173975277312e+01  8.7544483800649559e+01  8.6836247079651656e+01  8.6024171042207783e+01  8.5352279868467960e+01  8.4272201613084462e+01  8.2532129137466143e+01  8.2347811183266032e+01  8.4562941575165425e+01  8.5135350648056857e+01  8.5266439219558578e+01  8.5415937496713497e+01  8.5628415730901509e+01  8.5912837326384263e+01  8.6950976457629736e+01  8.7339098663577147e+01  8.7556210651854556e+01  8.7604748481983009e+01  8.7365600945840754e+01  8.6786553728634971e+01  8.6197253560146692e+01  8.5568338550147431e+01  8.5912938578590243e+01  8.6206901164184345e+01  8.6630396464884399e+01  8.6759357143190897e+01  8.6747431792054471e+01  8.6791612403232392e+01  8.6761139726656850e+01  8.6471698597719310e+01  8.5562025667575270e+01  8.4089022419323001e+01  8.3909603026971027e+01  8.5372159256457522e+01  8.6006950520878561e+01  8.6201947998293988e+01  8.6050701994414339e+01  8.6133865998664461e+01  8.5976264360801963e+01  8.5958432703772644e+01  8.5749060759616086e+01  8.5654780723359593e+01  8.5370655283481881e+01  8.3130599610348582e+01  8.0780171590874346e+01  7.7760327424793005e+01  7.4874376203158349e+01  7.2125170071268258e+01  6.9810259874532846e+01  6.7949545158376722e+01  6.6199814702191347e+01  6.4414228733078232e+01  6.2781434135593443e+01  6.0833500466603780e+01  6.0010111697200344e+01  6.0382655581744821e+01  6.3595640832250687e+01  6.6079623699091414e+01  6.7058372269160387e+01  6.8049519616783769e+01  6.9755932467074743e+01  7.2008251273070613e+01  7.4518106324012123e+01  7.5217974859469919e+01  7.5225829740336636e+01  7.4169404087065089e+01  7.2054697541062140e+01  7.1647561536295143e+01  7.3569594703219266e+01  7.4862426745181097e+01  7.5306374523701464e+01  7.5310639488089308e+01  7.3930514319830380e+01  6.9412301791650279e+01  6.8695977129924756e+01  6.7615805848670362e+01  6.7022089971626698e+01  6.6119622137954082e+01  6.5014203044454774e+01  6.3671327838754380e+01  6.2360873844598480e+01  6.1219104531810260e+01  6.0740829327030070e+01  6.0451378995341130e+01  6.0368412997219124e+01  6.0101140314552211e+01  6.0019403249268379e+01  6.0029176932773872e+01  6.0418207704722363e+01  6.1020677123216913e+01  6.1119696073197389e+01  5.9966493476111701e+01  5.8520279930720271e+01  5.7307805496658816e+01  5.6566344519879166e+01  5.6240849796184442e+01  5.4774647422215025e+01  5.3463814654454076e+01  5.2281701390427180e+01  5.1909288882295115e+01  5.0768374263704573e+01  4.9301217092314239e+01  4.9284425515018775e+01  4.8869123922588791e+01  4.8047782101841442e+01  4.6050130934682265e+01  4.3698783514788865e+01  4.2237619856984821e+01  4.0671733487331480e+01  3.9382171742420937e+01  3.8142833858277022e+01  3.7430036011904775e+01  3.6981388627552484e+01  3.6007022023320516e+01  3.5429547347940741e+01  3.5362394215732230e+01  3.5271977286508331e+01  3.4790850834496631e+01  3.4396311278260725e+01  3.4271946659660117e+01  3.7373416578284072e+01  4.2794304325015261e+01  3.7240063284785165e+01  3.4840030810837490e+01  3.3006360259303882e+01  3.3204558432046518e+01  3.3151363187330801e+01  3.2879730015273175e+01  3.2542017169820191e+01  3.2224260050434808e+01  3.2252128545979609e+01  3.2724567655716299e+01  3.3490284369186824e+01  3.4273614456619953e+01  3.5018084278109548e+01  3.5966779701872966e+01  3.6476863699467486e+01  3.7128172920532123e+01  3.8441194587597018e+01  4.0096537785428481e+01  4.1051911108094693e+01  4.0966147022663613e+01  4.0920308706590440e+01  5.1962380961736834e+01  6.0426206787164837e+01  8.4867372776655515e+01  8.7255437204289152e+01  8.7669191155356415e+01  8.4855335850139795e+01  8.7536997882822490e+01  4.9150844484906187e+01  8.4647470646995686e+01  8.6163975934642608e+01  7.3141135155437567e+01  7.2375998294317370e+01  6.0159166492465324e+01  6.0036263344507603e+01  8.6506212596869887e+01  5.1962415442378109e+01  5.1861656297760582e+01  8.4583444821640640e+01  8.5126944544776023e+01  4.9149339213129174e+01  8.3777091429909504e+01  8.6164051555623516e+01  8.5291896317311100e+01  8.4432021574480970e+01  8.6103318495435190e+01  8.4508589219699587e+01  8.6102614988383962e+01  4.8537098274548129e+01  6.6170982323586330e+01  7.5429393002849267e+01  5.0373643496020108e+01  3.5428792430711020e+01  5.1454883552207768e+01  7.4904351648376007e+01  6.0285364005323174e+01  6.4186302997110062e+01  4.1876379541495972e+01  4.1556728428045162e+01  7.4710296822859320e+01  4.6662282387049039e+01  8.1814987813134877e+01  6.7004286618970184e+01  5.2446298753050250e+01  5.6405395830184176e+01  6.7950599932045051e+01  3.3672207836795181e+01  7.7860111986664023e+01  6.1174926299789881e+01  6.9661921381994972e+01  5.1738278190901809e+01  3.6053528639191583e+01  4.5625860010760825e+01  4.4254604818364236e+01  5.6919253142160706e+01  4.2601702069344952e+01  8.1032029830745486e+01  3.6494998294251324e+01  7.5670977564422230e+01  6.3263959164836898e+01  6.9892988204432427e+01  5.0559285271956540e+01  7.2211348755341575e+01  5.9319605881537406e+01  6.7081587834460009e+01  6.4648856062014701e+01  5.5542417518318025e+01  3.7773691882777328e+01  5.9203033223204827e+01  7.9376570947510231e+01  7.4277300169980663e+01  8.5265401360435817e+01  7.0391462257427733e+01  6.9215715933619308e+01  5.5921438292096454e+01  3.9157303028081849e+01  4.1813379470748728e+01  5.8855881662422654e+01  7.8934613318670628e+01  6.0961174398562605e+01  3.5081869354853474e+01  3.8580428477688677e+01  8.0972759529972876e+01  4.4766056499153855e+01  3.2380532763279689e+01  6.7687294508938749e+01  7.5723886726134580e+01  6.5127760438635647e+01  4.6329458536661797e+01  8.4803775161529870e+01  3.7568787169569745e+01  5.0890529373391416e+01  5.9550745944818289e+01  6.4803290045997585e+01  5.6132953354751770e+01  4.6795217626981689e+01  4.3819447492624917e+01  5.4875583561996599e+01  4.7350069424951919e+01  4.7459441100116791e+01  4.4641812088577730e+01  4.8757835423792656e+01  8.4312167604188218e+01  7.8359222064640477e+01  5.2764449949153651e+01  8.2907589280447880e+01  7.5577487879880493e+01  7.2753753539586057e+01  8.0373105286328311e+01  6.2472388736186595e+01  5.8926359505040075e+01  6.5228028361878032e+01  7.2030956248467760e+01  5.7488001440072694e+01  7.7883281614170912e+01  4.8732541581234145e+01  6.5295009540022093e+01  3.2632436643547933e+01  4.8224079211447034e+01  6.8532585029538396e+01  7.7383940761724574e+01  6.2260109636093219e+01  7.0727990937815548e+01  6.1093488629786350e+01  7.1620416718982682e+01  3.5204017808438600e+01  5.1596473432244679e+01  5.3223410274584289e+01  7.9589964681998239e+01  6.6569627841751128e+01  3.7213318115991378e+01  7.9145506643547137e+01  6.3171748345430217e+01  8.3952161346036831e+01  3.3435155502463054e+01  8.4556904639541401e+01  8.4480649229429929e+01  5.5151030206413068e+01  5.0887612983398895e+01  8.4550064538982369e+01  8.5521514206138676e+01  8.2703457290204781e+01  8.4781124469381098e+01  7.1326431572069268e+01  3.6068206268617409e+01  8.0528542342257637e+01  7.5712038004894083e+01  5.6037486817435401e+01  5.0471129248015693e+01  4.7333095871282808e+01  8.5277888192214164e+01  8.4472136908942886e+01  5.8389395621310065e+01  8.5561678371198099e+01  8.3480151539429158e+01  8.3979073237046322e+01  8.5659025823407006e+01  5.9461338296725657e+01  4.9018195224338363e+01  7.1105180311563942e+01  3.4256211437585101e+01  4.9081616043141437e+01  3.6459539084298818e+01  6.9107094434329909e+01  8.7038458702212111e+01  6.6572599120262268e+01  7.2548045703165627e+01  8.3159343844307699e+01  5.9493607980322345e+01  3.2767450081790855e+01  7.1858198750605396e+01  3.9093472043375485e+01  5.2349819150957465e+01  8.4562632981550465e+01  8.2615661204082599e+01  6.1995387922010750e+01  8.7041536519888723e+01  4.3236011482684312e+01  8.5091302043560404e+01  6.3827181336854977e+01  3.2564463063482911e+01  3.6262115786221642e+01  3.7139767699302809e+01  7.2271997180081769e+01  8.1607688092612733e+01  8.0962256770083400e+01  6.8546407544004765e+01  8.5007055368344936e+01  6.0052514124463691e+01  4.9054806588989095e+01  4.9041277961949163e+01  3.3445729214585185e+01  8.4546629970871564e+01  8.4728453518857009e+01  8.4800342462581938e+01  7.5443642536558983e+01  8.1354081943709815e+01  8.4839620388283237e+01  8.3288011136484769e+01  6.6848318340685694e+01  8.7621965410043430e+01  8.7572637067026619e+01  6.1014964502065297e+01  3.5045202701970766e+01  6.0970912449633289e+01  8.1826785720913236e+01  5.5938508117684670e+01  6.4527381890387602e+01  8.7220748756316937e+01  6.1356752708937854e+01  7.3195303143395535e+01  4.0855118814412961e+01  5.6295528624289844e+01  5.5533513293842347e+01  5.6915785126400642e+01  8.5546452611224737e+01  5.0315730942792221e+01  5.1164340698478611e+01  4.9374437818078775e+01  5.1033896377001341e+01  4.7401730277047939e+01  3.2827916801175334e+01  3.1548350684959821e+01  5.2241814876161094e+01  5.4920415542475219e+01  7.4996406132802136e+01  7.4928089935598209e+01  8.7436993564968645e+01  6.6726291595317051e+01  6.4325871639361409e+01  6.0323616009340476e+01  5.9994852976776819e+01  5.9998101149137270e+01  6.0049609083442668e+01  5.9847477153389626e+01  5.9741987054564468e+01  6.1806597200622726e+01  5.9858242467856847e+01  6.0484043954665985e+01  6.3759459022774635e+01  6.1944134374739228e+01  5.8487999661427629e+01  5.9981210353233429e+01  4.4765570000644104e+01  4.6356446291297495e+01  4.4443003138317891e+01  4.2956739425206543e+01  4.3321792334845398e+01  4.1497458459938748e+01  4.2571122537130798e+01  4.1900320698786707e+01  3.8782844655827759e+01  3.7632021685113408e+01  3.4118650573769145e+01  3.4638494404831789e+01  3.4566486658529662e+01  3.5473197935849896e+01  3.4964350845544566e+01  3.6223848059363924e+01  3.6206055881227684e+01  3.5439644796757612e+01  3.6809579036077629e+01  3.6414048109123293e+01  3.7235093957724693e+01  3.6692452529198881e+01  3.7950547201576526e+01  4.0063779627991948e+01  3.8792479350486715e+01  4.5288472091214629e+01  4.6244727018355398e+01  4.6162728850406779e+01  4.8923707436405778e+01  6.6875877919954263e+01  6.6500096247569402e+01  6.5766497880806355e+01  6.7140513220523573e+01  7.3390837072856513e+01  7.6978390870027283e+01  7.4208614366344733e+01  7.6496374598000699e+01  5.3157572227197178e+01  4.9290924025432631e+01  4.8801807644508223e+01  5.0209438960953996e+01  3.6147974559795841e+01  3.7943882568603762e+01  3.6221754553440221e+01  3.6771252960535428e+01  3.6035272896404393e+01  3.5264551784064814e+01  5.4103285108239113e+01  5.5209250319106367e+01  4.8640841031435095e+01  5.2365055027489284e+01  4.9887099036340054e+01  7.5328405653107666e+01  7.2485344942570521e+01  5.9386844144266831e+01  5.9412870778805711e+01  6.1770372458913172e+01  5.9118820152952885e+01  6.1237397257099374e+01  5.9688652486674698e+01  6.2998017111597306e+01  6.5741868223653071e+01  6.4859198271194828e+01  3.7698704237962744e+01  3.9750212566391141e+01  4.1848596502123456e+01  4.0280673011478690e+01  4.2070224483632117e+01  4.2227143101956123e+01  4.6550936514292118e+01  3.8611694635569002e+01  3.9414764295522772e+01  4.4403402652535846e+01  4.4336402682909487e+01  7.1802037329326524e+01  7.6764763395447261e+01  7.3141949799463120e+01  7.7730232109526384e+01  8.0740119889960383e+01  7.0085739941171354e+01  6.4459143849900400e+01  6.8825061948941496e+01  6.6487042916935096e+01  4.8749119802413411e+01  5.3413715295632059e+01  5.5085487467664095e+01  4.9570052199064342e+01  7.1356588449474586e+01  6.8241012790087623e+01  6.8774734228156120e+01  6.5706679659630666e+01  3.5016232856994392e+01  3.4215839460500057e+01  6.0918589495197715e+01  5.9667883718504491e+01  5.8369187624995590e+01  7.0536847876566824e+01  6.8090871183347744e+01  7.1513811080823828e+01  6.8319152368844641e+01  5.3767616002657647e+01  4.9899666766372455e+01  4.9775484076713838e+01  5.1385920168428122e+01  5.0696595753156828e+01  5.2475694060298565e+01  3.6773340188120429e+01  3.6059247851998975e+01  3.6692191787531172e+01  3.5924563775058630e+01  3.6394753737906932e+01  3.6367577388871602e+01  4.5126501912366173e+01  4.5185868606253656e+01  4.6902913785390858e+01  4.5060694402831828e+01  3.9689143648134383e+01  4.5536218739500207e+01  4.5704525925312851e+01  4.6632578940345077e+01  4.0831828118858134e+01  4.3561639034939660e+01  5.6320656775347111e+01  5.8683523531332369e+01  5.6188046118939120e+01  5.4600336022256002e+01  4.0483212285500869e+01  4.4168459533155776e+01  3.9378169827861100e+01  4.4711449319586571e+01  3.7259743893549974e+01  3.4827029479272944e+01  3.7058280608435332e+01  3.5846324455005274e+01  3.6278919784066936e+01  3.5470605689880010e+01  3.6854863231517982e+01  6.1987631264220752e+01  6.2027522883222630e+01  6.4690036519542815e+01  6.5293551624360816e+01  7.0246479742590580e+01  4.8710102209595355e+01  4.9050617410154892e+01  7.0311523076812108e+01  6.1916001285662013e+01  5.8535430441017382e+01  5.7636483120955063e+01  6.1336581154105758e+01  6.8176836703485165e+01  6.6234468639106296e+01  6.3431605639039716e+01  6.3068719667020396e+01  5.7139183192290332e+01  5.2321712655910360e+01  3.7882828534973768e+01  3.8180651346664874e+01  3.7439419786663962e+01  5.8848257056124659e+01  5.9880751305377707e+01  7.5613813054592356e+01  7.8448954055168073e+01  7.2287403253577850e+01  7.6408818620059179e+01  7.2836591104477492e+01  7.2568567619036003e+01  6.6722675018981960e+01  6.6707852115636243e+01  5.3421993440795703e+01  3.7994842927588891e+01  5.6263297840220353e+01  5.8824118458536951e+01  3.5074997726610476e+01  3.5901496498086878e+01  3.5112423119416285e+01  4.2254378639221734e+01  4.4683790255017591e+01  5.0142550570812730e+01  4.6933426747713142e+01  4.6545274298906321e+01  5.0383100786476746e+01  5.9227811345153611e+01  5.9423192948755734e+01  6.0274279327313543e+01  6.0154135060598726e+01  6.3791859960078128e+01  6.3658825322991540e+01  5.3959084565144558e+01  5.0079536064347423e+01  4.7679726231970825e+01  5.0513019582687306e+01  4.7993164079850878e+01  4.5196748627600492e+01  4.6806030099525302e+01  5.5055533145254309e+01  5.1434153006294480e+01  7.5199515696267653e+01  5.3031570625702535e+01  4.9540269922801031e+01  6.0698769644652991e+01  6.3827069701519477e+01  6.8661737582598391e+01  6.6539705952662331e+01  3.6829801903718327e+01  3.4177523490450049e+01  3.6702556888944223e+01  5.9455152659280678e+01  3.5825935654540430e+01  6.0069696619836442e+01  4.1179375971927804e+01  3.7916547123675223e+01  6.1113504922263083e+01  4.6770526638680103e+01  6.6969716345891968e+01  3.5741383442477790e+01  3.6246616849035135e+01  3.5572000339317356e+01  3.5629786788784820e+01  3.5587014574670718e+01  6.0357831242506016e+01  4.1498545254303387e+01  4.4033865846185833e+01  4.2776315058106384e+01  7.4780872990271092e+01  5.7001846461461092e+01  5.0524787184211895e+01  5.0786253992930767e+01  5.2317853719557334e+01  3.4799611105931184e+01  6.7990554284256532e+01  6.8637489770819769e+01  3.6318238709161292e+01  3.6153228366379061e+01  4.4971641666399627e+01  4.4939527260230392e+01  4.1817853435247606e+01  5.5412980413049908e+01  5.8972213349931344e+01  6.0493486430193080e+01  5.8067050656405875e+01  6.1432849601469101e+01  3.8407727995363295e+01  3.7471681180923568e+01  3.7906379792520276e+01  3.7631743196430705e+01  6.8467944773239296e+01  3.7685256700255522e+01  3.9506326681155933e+01  4.0412090198326169e+01  4.7314254952402898e+01  4.7325885321780774e+01  4.7951381168657754e+01  4.6278576844502027e+01  3.8491708568104386e+01  3.7097674329897792e+01  3.7800447335530095e+01  4.7957272486076590e+01  7.2078279125044489e+01  7.2749345198534485e+01  7.3900477621743462e+01  6.2011604267735230e+01  6.5642235673230900e+01  5.0689673372307745e+01  4.8404312430582010e+01  4.7823502715965418e+01  4.8883749946293086e+01  6.2828524728036705e+01  6.0060587259413595e+01  6.0722033897234574e+01  3.5507005038073089e+01  3.5284736214439263e+01  3.5398370116422932e+01  5.1363618847398655e+01  5.2996832129709667e+01  5.2033121834587732e+01  5.0354813365170060e+01  6.5151391457739848e+01  3.5998668357112209e+01  3.6164656008375175e+01  3.6155966512383849e+01  5.9845124331849469e+01  5.9660834822694603e+01  5.9685613432839389e+01  4.2124530852783941e+01  4.3346920678820993e+01  4.4150389454382861e+01  3.7118952821289206e+01  3.5239326709850523e+01  3.5509997442804462e+01  6.0807230390105289e+01  6.2383894603241664e+01  6.1472608888232365e+01  6.0675912190620473e+01  6.0646260264983603e+01  6.1176102598045212e+01  6.0230018201718359e+01  4.4693359181282041e+01  3.5632248135790121e+01  4.5148696074233889e+01  6.7459431028754565e+01  4.9495139131460220e+01  4.9041090143235579e+01  3.5579223276479730e+01  3.6629103170338610e+01  3.6970006717480224e+01  3.8378769184072794e+01  3.7281274042731312e+01  3.6471932859290789e+01  4.9034080688341696e+01  4.7519894287661927e+01  4.8348106506414005e+01  6.0247298309602542e+01  6.0135647002588293e+01  3.6912476052679793e+01  3.8002461699528361e+01  3.9723107418515589e+01  4.0493480484331677e+01  4.5473452882742066e+01  3.8731605982116612e+01  3.9408006687443546e+01  3.8394238942674043e+01  4.6927303433370184e+01  7.4170328913339532e+01  4.9283565620732212e+01  5.1706384167984424e+01  5.1268940678124203e+01  6.6544021540521328e+01  6.7271165102482001e+01  6.5841439089103915e+01  5.0496899143346063e+01  5.2553260252820721e+01  5.0327590559776830e+01  4.4328170714218039e+01  5.3782362534462074e+01  5.4089003372913240e+01  3.7543666221442059e+01  3.7294098382082396e+01  6.3209288161387704e+01  6.2799211314336326e+01  6.4123711835104316e+01  3.7767809045332335e+01  3.5871991198441968e+01  </DataArray> 
</PointData> 
</Piece>
</UnstructuredGrid>
</VTKFile>