<?xml version="1.0"?>
<VTKFile type="UnstructuredGrid"  version="0.1"  >
<UnstructuredGrid>
<Piece  NumberOfPoints="784" NumberOfCells="1320">
<Points>
<DataArray  type="Float64"  NumberOfComponents="3"  format="ascii">266913.131276 586512.314988 0  266738.13716 587762.325998 0  266363.132677 589012.328643 0  266175.641078 590169.601714 0  265666.575631 591040.7699119999 0  264875.64001 591687.766419 0  264900.636161 591845.049083 0  266088.14152 592012.3229499999 0  265561.959259 592661.17101 0  264288.136855 593037.368683 0  263865.194033 593999.8486949999 0  263850.641856 593236.729596 0  263625.634872 592756.525286 0  262689.574249 593299.848918 0  262475.636737 594003.0907310001 0  261934.554452 594340.929792 0  261725.631329 594932.094409 0  261729.256443 595728.498809 0  262138.136044 595012.330523 0  262288.141035 596262.333669 0  261488.994028 597511.480605 0  261234.15567 598316.338928 0  260815.635063 599014.863821 0  261400.643658 599389.7367680001 0  261322.963374 600022.185065 0  261119.455248 600931.061306 0  261607.436504 601293.0629359999 0  260807.446929 602089.899812 0  260025.642878 602988.868697 0  259613.135827 603937.3854499999 0  259050.643123 604100.987861 0  258411.880065 603988.6335979999 0  257764.357469 604449.872569 0  257971.239668 605320.429125 0  258041.396867 605740.635381 0  257188.143339 606987.394312 0  256038.141198 608112.3554550001 0  254788.141633 609087.4026939999 0  253588.140656 609812.362881 0  252338.135706 609737.4048949999 0  251088.138116 609787.404055 0  249963.12851 610287.399466 0  248613.130524 610462.365857 0  247363.132198 610687.407659 0  246113.130532 610837.411551 0  245832.347438 610918.209918 0  245016.946433 610958.5639439999 0  244313.129646 610762.372259 0  244400.622144 611378.093316 0  243939.669208 612460.8930899999 0  242960.649733 611984.892792 0  242170.381438 611919.647351 0  241888.122919 611112.375656 0  241393.380757 610467.6456149999 0  240594.157528 611306.369822 0  240525.621947 610804.648112 0  240363.123632 610512.3745050001 0  239113.123247 610262.374278 0  239813.12126 609037.412459 0  240588.122952 607812.368199 0  241013.119545 606625.9534560001 0  241454.373249 605724.888025 0  242238.120107 604687.3993 0  243088.121248 603462.362766 0  242860.319451 603007.3932640001 0  241563.116617 603812.361344 0  241778.400913 604327.642217 0  242059.837234 604824.879102 0  241475.620201 604923.2402390001 0  241462.182234 605449.881372 0  240906.219606 605674.888222 0  240241.856192 606891.125066 0  239891.734044 607841.012479 0  239048.653431 608724.889805 0  238118.054545 608974.895967 0  238888.111029 607337.406468 0  239738.119992 606212.362729 0  240288.12044 605687.4075229999 0  240380.212307 604729.521696 0  239347.309632 604603.204501 0  238888.112036 604387.408787 0  237913.11173 604687.401386 0  236784.172023 604499.882783 0  236883.408793 603717.08334 0  236154.933927 603595.565605 0  235688.103943 602912.369264 0  235763.108033 601662.366516 0  236363.110805 600412.35884 0  236738.107995 599162.356577 0  236525.607944 598482.2412899999 0  236138.109208 599362.357613 0  235725.063048 600325.4466510001 0  235091.948926 601408.5220979999 0  235188.10921 600312.366344 0  234375.602405 600833.9674270001 0  234663.109308 599912.358011 0  234138.105122 600062.365644 0  233955.307245 599029.561063 0  233338.103791 598387.401556 0  233988.09795 597862.356384 0  235138.101489 596637.3947750001 0  235563.1039 595387.392428 0  236513.103639 594212.356312 0  237163.10684 592987.3929869999 0  238313.103031 591862.3515540001 0  239513.107028 590812.3512640001 0  240638.102135 589787.387271 0  241463.109549 588587.378486 0  242294.489816 587443.735215 0  242913.101099 586512.341804 0  243544.066915 585474.859604 0  243040.448415 585184.975583 0  242438.10214 585337.38015 0  241313.102353 586562.339499 0  240538.107104 587787.382449 0  240114.641085 588588.939407 0  239388.100256 589437.382238 0  238188.104456 590512.346358 0  236938.100507 591362.349798 0  235813.10453 592537.396388 0  234864.502938 593178.7753880001 0  234463.097651 592862.357267 0  235113.0965 591662.3545979999 0  235713.101522 590412.346099 0  235777.688431 589976.7582779999 0  234943.583145 590706.265132 0  234462.482256 591490.2841159999 0  233801.497784 592112.940187 0  233388.099101 591787.394208 0  234013.093099 590437.393065 0  234776.217248 587148.7548100001 0  235163.093726 586562.3486189999 0  235313.098918 585483.229012 0  235250.59732 584662.298153 0  235588.093896 583337.379493 0  236329.432041 582199.858992 0  237188.096234 581462.3349939999 0  237463.088521 580212.335511 0  238350.592558 579057.652616 0  238591.415797 578574.847681 0  238313.094106 577612.328905 0  239229.696732 577695.769664 0  240195.161018 577513.008613 0  240614.996733 577149.8518770001 0  240663.091715 577412.332622 0  240288.092486 578662.334085 0  239942.357258 579508.095811 0  240438.100019 580212.3334220001 0  241338.095553 580387.375355 0  241238.099828 579137.369157 0  241788.097003 577887.370889 0  241983.554649 577241.9220939999 0  242054.178239 576927.8105029999 0  242588.100699 575737.366175 0  243149.324833 574898.583978 0  243695.278626 573919.517981 0  244268.494418 573724.8454239999 0  244995.134063 573930.2767810001 0  245417.314363 573391.601898 0  243450.599125 571859.479773 0  245776.797908 572599.8353060001 0  246779.639852 572973.285167 0  248034.741935 573186.082054 0  249413.10651 573162.3205520001 0  250496.922226 573271.1521899999 0  251613.105126 573237.3551319999 0  252421.824577 572846.032906 0  253256.245022 572580.4733130001 0  253739.471933 571960.9547369999 0  254174.511864 572149.8346569999 0  254484.944333 571684.194807 0  254384.108649 570891.346712 0  254344.002752 570218.26407 0  255025.609604 570829.0294979999 0  255715.005913 570489.264586 0  256218.846343 570774.828355 0  256834.349083 570508.5908 0  257390.092515 570014.308325 0  257624.431042 568493.478911 0  259355.811717 569380.021819 0  260033.372814 569617.066669 0  262679.741751 570320.699974 0  263289.115756 569524.817815 0  263463.114338 570512.301061 0  264638.198419 570687.3443539999 0  265058.220065 571334.378467 0  265447.561421 572077.90485 0  265488.125257 573137.3446020001 0  265131.937715 573963.293593 0  265432.389648 575093.068786 0  265638.122314 576338.029955 0  265750.630817 577371.8281319999 0  265738.570663 578561.9098850001 0  265875.630866 579139.630549 0  266213.129247 579862.311842 0  266563.130472 581112.314509 0  266238.135356 582362.310259 0  265938.12863 583612.320897 0  265738.131342 584762.3210189999 0  266875.638633 585365.358768 0  264018.7239399826 593650.4646671159 0  262236.3944351029 595831.1252656333 0  241846.246678 605206.1436625 0  240200.622106 608424.8903290001 0  240943.4862974102 610939.7757535663 0  236550.6094 599787.3577085 0  238528.1212051503 608102.9081793013 0  244413.4891967989 572609.5960859474 0  236382.0474488751 598808.3067022427 0  235369.601910944 600933.5380148316 0  235413.099011 591037.3503485 0  235446.2251831186 590266.6553871984 0  240475.5921005 578037.3333535 0  240413.173949154 577324.4280286073 0  240574.037899 606283.0066440001 0  263857.9179445 593618.2891454998 0  264153.4303974913 593343.916675058 0  242042.1833925 604946.7714812499 0  241650.3099635 605465.51584375 0  244613.6985165 572229.6575395 0  236631.8579695 598822.2989335 0  235140.029068 600860.444221 0  241767.7287175 604874.0596705 0  242140.15174975 604817.0853906251 0  234781.8558075 600573.1668855001 0  242091.167571125 604881.9284359375 0  234519.3558565 600373.162719 0  254604.8337712102 583989.0014118921 0  250699.5846056537 594617.3297041012 0  250540.4796469513 602258.2940568649 0  248483.7490186612 580334.7345534252 0  258549.2190328319 577893.951823392 0  257067.0067473103 590016.5327808241 0  243285.0921999099 596333.923437875 0  248333.1386145258 589098.0389905117 0  256142.8445072741 595883.3911551933 0  260245.1368072523 583315.2785712298 0  253472.3380211276 578932.2908163272 0  246432.3347504817 599884.5019511909 0  261555.9240922556 588041.186709004 0  247293.1100123104 605823.8307887657 0  246458.2798550911 593168.8646574575 0  252840.0183145193 588226.5564648228 0  249828.2874404451 584740.7888937403 0  255409.5660975206 600458.8956828594 0  260819.9733392385 574219.403683011 0  252584.2262054711 605722.6603825617 0  254049.8830611471 592547.4852571967 0  250015.4356193061 598425.2225922942 0  245872.072249477 577604.9761853142 0  262002.1583249522 579753.4663046852 0  257732.6630933878 586227.970805314 0  250242.5556457866 577017.3316409125 0  244921.6453001869 581816.6358421432 0  256520.3890639471 580904.824006648 0  240779.0970645865 599524.6679555867 0  257100.1829219198 574459.5922545703 0  239912.2630002034 595231.1172704464 0  244703.0875078634 590068.6945953515 0  242549.5490268674 592874.3693043783 0  251586.0465921376 581796.2215047925 0  246643.189997516 596527.447801719 0  251049.7658069622 591057.6752245198 0  253014.5731561695 596998.6601086652 0  238680.2197353724 584542.2309791476 0  259715.365803504 591937.1938619445 0  254097.157218761 575731.4494927844 0  246806.6408589328 586139.0877599345 0  246136.1179750556 602959.471719323 0  253520.7033332401 602835.180253843 0  244125.4295793909 607538.9817227355 0  252546.8895354472 599881.3279113505 0  258289.0983523553 600397.640191779 0  247518.7952199645 583037.3718217331 0  263140.3959879661 582529.2228421422 0  262894.8586894067 585442.3590432997 0  256968.6320599076 593040.7691844478 0  243573.0187527719 600218.2795730785 0  258888.5766127351 595139.7745218446 0  262588.7569809347 576734.8569237856 0  259318.4257992262 580601.2540325444 0  249963.3812725965 607065.7205847671 0  257494.5307999607 583482.5893534871 0  258906.4757205145 572278.8089438241 0  237751.446593475 587300.5805003279 0  255142.4708720699 604956.7580261135 0  258485.4978753244 597756.9250383095 0  255516.7820591553 587791.39641967 0  239758.4692108706 601926.8203218657 0  255873.0092222999 577739.5085867504
[...]
<PointData  Scalars="f_49376-1"> 
<DataArray  type="Float64"  Name="f_49376-1"  format="ascii">4.1344649637724004e+01  4.2646967790861581e+01  4.4624956814109034e+01  4.6430334293347371e+01  4.7765648469590097e+01  4.9811213922727795e+01  5.0474933491747585e+01  5.0918351798200206e+01  5.0957876498152963e+01  5.1571839357253701e+01  5.1967771655556646e+01  5.1804650664054513e+01  5.1987218929533732e+01  5.4498114542419394e+01  5.5940655700740237e+01  5.7158933301717084e+01  5.8670202959740806e+01  6.0173784618518461e+01  6.0141279102951444e+01  6.0577687310245096e+01  6.2708290704574182e+01  6.4418427116375511e+01  6.6402769192416827e+01  6.7430990720285749e+01  6.7974454854707631e+01  6.9256679956915264e+01  6.9625434560070730e+01  7.0333721720484505e+01  7.1651048536878520e+01  7.2436850226678359e+01  7.2619634548495185e+01  7.3069436309615810e+01  7.4210977211265700e+01  7.5138932430356988e+01  7.5315405950129957e+01  7.6218354232536939e+01  7.7464472338501920e+01  7.8775874803639326e+01  7.9710488218800748e+01  8.0511518524998550e+01  8.1710592105835886e+01  8.2841111870914972e+01  8.3851889772714202e+01  8.4737848086490942e+01  8.5523859474968830e+01  8.5689150560232378e+01  8.6114626095006088e+01  8.6662366446781164e+01  8.7089136060597909e+01  8.7287067477867566e+01  8.7326244722615016e+01  8.7364559363179268e+01  8.7349944700057705e+01  8.7434059460534385e+01  8.7639872879589518e+01  8.7623969416333352e+01  8.7627066650504503e+01  8.7712115148076037e+01  8.7488099566295588e+01  8.6776264775620419e+01  8.5963766686230940e+01  8.5292701308309077e+01  8.4214735812887568e+01  8.2478672171066748e+01  8.2293531195781966e+01  8.4501882814355781e+01  8.5071241800563385e+01  8.5201432052105389e+01  8.5350837647379066e+01  8.5562785052566511e+01  8.5846353690942166e+01  8.6885359777206006e+01  8.7276294286709685e+01  8.7496616622969739e+01  8.7546073947414030e+01  8.7303177120499299e+01  8.6720200217946200e+01  8.6130640769847162e+01  8.5506158660406030e+01  8.5858155377919758e+01  8.6154408667999363e+01  8.6577970601016830e+01  8.6705722678938585e+01  8.6694571692552429e+01  8.6739231162111750e+01  8.6709500310320223e+01  8.6421780327673702e+01  8.5514049220846076e+01  8.4039727059313023e+01  8.3863078925562135e+01  8.5328127550493306e+01  8.5963196854258882e+01  8.6157590829292928e+01  8.6007301110821828e+01  8.6091050017498404e+01  8.5934205157850215e+01  8.5917247585496284e+01  8.5709437423211412e+01  8.5616362431646650e+01  8.5331750730869643e+01  8.3088965391537641e+01  8.0735447367080141e+01  7.7705619491365923e+01  7.4809812076516707e+01  7.2050505823742427e+01  6.9738381968693716e+01  6.7892397031815221e+01  6.6165640466522234e+01  6.4397028943266037e+01  6.2775008935825802e+01  6.0818779880410183e+01  6.0063198815207066e+01  6.0452906153098837e+01  6.3581472439774998e+01  6.6014068866259962e+01  6.6980338055340425e+01  6.7962764450726581e+01  6.9663986278449087e+01  7.1928493883907166e+01  7.4475846717595928e+01  7.5189402458048832e+01  7.5197389119861327e+01  7.4120475735033722e+01  7.1976129874286130e+01  7.1568011983412362e+01  7.3514443181947584e+01  7.4825983529457886e+01  7.5276388616058142e+01  7.5280669935149461e+01  7.3880150687602040e+01  6.9334343576350179e+01  6.8618610377818172e+01  6.7543427869793973e+01  6.6953929331520527e+01  6.6053005760331459e+01  6.4943927047442997e+01  6.3597897684885545e+01  6.2287342331170642e+01  6.1139728399601864e+01  6.0657259582436751e+01  6.0366211064878627e+01  6.0279489038581872e+01  6.0003537246958345e+01  5.9919582429264096e+01  5.9929615186414338e+01  6.0326450333600029e+01  6.0935342705909257e+01  6.1025796981324824e+01  5.9839990789661776e+01  5.8451665532830077e+01  5.7235883550323450e+01  5.6495388335628682e+01  5.6170310018452199e+01  5.4698928628861715e+01  5.3379355007708071e+01  5.2190570223340664e+01  5.1815954132714140e+01  5.0665435121768645e+01  4.9204833086263505e+01  4.9200977985008720e+01  4.8772560826776726e+01  4.7951318396200243e+01  4.5980974796191518e+01  4.3677427534717630e+01  4.2224528214769101e+01  4.0645361573745120e+01  3.9343276773051606e+01  3.8093168529136229e+01  3.7370432610601085e+01  3.6915602321540796e+01  3.5926324551467694e+01  3.5343849767928226e+01  3.5277346348173026e+01  3.5183765529865262e+01  3.4697205870883806e+01  3.4289344671081821e+01  3.4108210021062099e+01  3.7332233517804482e+01  4.2883306183961061e+01  3.7229525858641196e+01  3.4747441000941762e+01  3.2941528464328215e+01  3.3140672984027901e+01  3.3094491282081947e+01  3.2815682375752786e+01  3.2466169106441527e+01  3.2135827351458062e+01  3.2166815501742441e+01  3.2643771678033303e+01  3.3411743959598645e+01  3.4190231352750452e+01  3.4934963990571511e+01  3.5886504290123995e+01  3.6393314295636337e+01  3.7042794814908333e+01  3.8366678675021717e+01  4.0052082651830794e+01  4.0994039670537902e+01  4.0876323933142437e+01  4.0838066252176702e+01  5.1924145624298262e+01  6.0339487033138454e+01  8.4808557488098756e+01  8.7196985025482050e+01  8.7613881578585705e+01  8.4806833570637025e+01  8.7477071412310920e+01  4.9061929667510810e+01  8.4602665903331243e+01  8.6119790435979766e+01  7.3075167213328271e+01  7.2305704018587448e+01  6.0062694241475171e+01  5.9936905671496525e+01  8.6439219564887310e+01  5.1924204336661148e+01  5.1819123270638897e+01  8.4525244652123803e+01  8.5067690981935513e+01  4.9060439566550627e+01  8.3728174481113129e+01  8.6119870901600109e+01  8.5226874221422477e+01  8.4374158019698342e+01  8.6060474199446972e+01  8.4450547783910878e+01  8.6059790782397684e+01  4.8596529486720300e+01  6.6175577940684121e+01  7.5396667885508776e+01  5.0627367295099937e+01  3.5801520202882728e+01  5.1745356817630828e+01  7.4860506673688462e+01  6.0304122658158498e+01  6.4157924913375325e+01  4.1846899575649623e+01  4.1856733459684484e+01  7.4665298192656962e+01  4.6586292327753128e+01  8.1757108641633138e+01  6.6976254567218433e+01  5.2837020093086210e+01  5.6355674590959573e+01  6.8063060960522535e+01  3.3610752104690008e+01  7.7794967235617491e+01  6.1193645071922155e+01  6.9630618107942894e+01  5.1774803901817904e+01  3.6231647264097433e+01  4.5801192303226415e+01  4.4419294407085005e+01  5.7009006513650817e+01  4.2568611321534718e+01  8.0973572768523795e+01  3.6454934248515450e+01  7.5607170334266726e+01  6.3257801327903721e+01  6.9848739480455620e+01  5.0509970128445332e+01  7.2194265324524778e+01  5.9266423205793913e+01  6.7129679014912355e+01  6.4599484901224727e+01  5.5499343731073566e+01  3.7986712831153568e+01  5.9179517420242931e+01  7.9332955816227994e+01  7.4239809936681795e+01  8.5204432660401920e+01  7.0446994181183669e+01  6.9183277421627821e+01  5.5944324953558876e+01  3.9195251893533829e+01  4.1726795585793127e+01  5.8918339989622091e+01  7.8880946787310819e+01  6.0887738733762781e+01  3.5034819639098714e+01  3.8603268433904738e+01  8.0913217985295418e+01  4.4766666792904324e+01  3.2264651393728649e+01  6.7604362998263753e+01  7.5659739196377416e+01  6.5076945896548921e+01  4.6966001763392441e+01  8.4764451304990189e+01  3.7791056880127329e+01  5.0816392494871721e+01  5.9574517152987021e+01  6.4791961384029676e+01  5.6114388822778764e+01  4.6766113606202019e+01  4.3740909505009547e+01  5.5124213013725814e+01  4.7439239993771295e+01  4.7482412866090925e+01  4.4569808807883796e+01  4.8790933025872746e+01  8.4253652296954456e+01  7.8301335322652491e+01  5.2742443788447439e+01  8.2852234690598664e+01  7.5536930554176223e+01  7.2690486006071424e+01  8.0312390464154561e+01  6.2416335805513086e+01  5.8902363988109116e+01  6.5372240818123288e+01  7.1997198048803867e+01  5.7514653282251061e+01  7.7838238681659135e+01  4.9133228724484141e+01  6.5280159321759413e+01  3.2555485178377985e+01  4.8450838307359270e+01  6.8524154311239286e+01  7.7321468581022216e+01  6.2286574081384302e+01  7.0693500563634387e+01  6.1054701792135290e+01  7.1551845906160381e+01  3.5332263361765847e+01  5.2016792757964275e+01  5.3189416661681065e+01  7.9535531293869951e+01  6.6515139400322667e+01  3.7213494189399924e+01  7.9085025675267516e+01  6.3148957413733918e+01  8.3910809642440753e+01  3.3360363059178326e+01  8.4497858918426601e+01  8.4422479537656542e+01  5.5092177706130805e+01  5.0826126099810928e+01  8.4491940181908745e+01  8.5463629883574896e+01  8.2650540053862102e+01  8.4739433036564492e+01  7.1251482243557092e+01  3.6010140512517381e+01  8.0483415787133453e+01  7.5646455169592983e+01  5.5968098384247469e+01  5.0408748817749270e+01  4.7253795102802187e+01  8.5218112418314561e+01  8.4414189699895687e+01  5.8315229851866533e+01  8.5511991672155887e+01  8.3424584792548885e+01  8.3922295224870822e+01  8.5602770004924849e+01  5.9466995921837487e+01  4.8941512509203477e+01  7.1018224995557006e+01  3.4168732416224259e+01  4.9009284200044483e+01  3.6396904496160282e+01  6.9023267959805935e+01  8.6978377216128465e+01  6.6502149691905885e+01  7.2481417640940279e+01  8.3108896842415305e+01  5.9566687088575961e+01  3.2623693661755411e+01  7.1784658720979948e+01  3.9166774128261800e+01  5.2260234026491808e+01  8.4518647483438968e+01  8.2570089059019182e+01  6.1918846617525496e+01  8.6981745892240156e+01  4.3359491022075325e+01  8.5048107722966336e+01  6.3757215743993690e+01  3.2492287434397610e+01  3.6196761817492970e+01  3.7187206670125590e+01  7.2226286825967634e+01  8.1557223654983005e+01  8.0908055737957497e+01  6.8487222906237065e+01  8.4947866229793846e+01  5.9972528460856189e+01  4.8960985259959109e+01  4.8948013608539931e+01  3.3285968719086164e+01  8.4488513875095123e+01  8.4669959212936334e+01  8.4741646884231585e+01  7.5378189998625842e+01  8.1299694313432695e+01  8.4784222510923769e+01  8.3232687023684335e+01  6.6772468531313109e+01  8.7566164705335495e+01  8.7516440086559811e+01  6.0958032531299970e+01  3.4965429027983205e+01  6.0888092276973225e+01  8.1776771566289653e+01  5.5866747675427760e+01  6.4460690409421389e+01  8.7162898515652969e+01  6.1388987449506068e+01  7.3141832085183481e+01  4.0788090601562061e+01  5.6225049312458111e+01  5.5460745094795527e+01  5.6846042702688337e+01  8.5504084958686008e+01  5.0251828039018839e+01  5.1106183119516601e+01  4.9306674318681885e+01  5.0975805507257739e+01  4.7332198285361173e+01  3.2768037086464567e+01  3.1457069644191755e+01  5.2175858853875688e+01  5.4846512200521708e+01  7.4963486665890997e+01  7.4893800809169889e+01  8.7379438791872232e+01  6.6695825327638559e+01  6.4307627206140381e+01  6.0302685340816474e+01  5.9982054440632659e+01  6.0014811518500323e+01  6.0119088131782981e+01  5.9876204282851518e+01  5.9808512261716452e+01  6.1844480283013169e+01  5.9932577921592355e+01  6.0560478691480036e+01  6.3745326094982218e+01  6.1982670540334077e+01  5.8443783237922695e+01  5.9934452756699727e+01  4.4726610566305517e+01  4.6336646030407302e+01  4.4459915175063699e+01  4.2943946099961110e+01  4.3360887727345009e+01  4.1479259033579325e+01  4.2618943876237260e+01  4.1937425691074431e+01  3.8776448920515925e+01  3.7621048217955810e+01  3.4036802167327451e+01  3.4554238862419673e+01  3.4481425170797372e+01  3.5391712272112528e+01  3.4878451571093159e+01  3.6142367121881655e+01  3.6125768244385121e+01  3.5354995267063529e+01  3.6723667506822892e+01  3.6333558735011287e+01  3.7162092084515137e+01  3.6610506383645735e+01  3.7886837103099772e+01  4.0040839492971152e+01  3.8747757899554365e+01  4.5581034015690044e+01  4.6212882234400226e+01  4.6236976118575022e+01  4.9116205285776665e+01  6.6810246346572782e+01  6.6501057586580629e+01  6.5765052385264184e+01  6.7139789077338989e+01  7.3384960745609192e+01  7.6931478412398292e+01  7.4175185588349478e+01  7.6455886461598482e+01  5.3340265982134810e+01  4.9386429914332219e+01  4.9111527340516695e+01  5.0720432867111917e+01  3.6329743930932764e+01  3.8101934334044728e+01  3.6349274380427495e+01  3.6929792665190135e+01  3.6379040303982244e+01  3.5589271287137940e+01  5.4169083347944799e+01  5.5439257528718521e+01  4.9077565341876301e+01  5.2730596761340408e+01  5.0034670717955485e+01  7.5275515889978436e+01  7.2450437897867559e+01  5.9356633603660391e+01  5.9400751933225159e+01  6.1762646431358505e+01  5.9132085324171904e+01  6.1276187346774748e+01  5.9651644530662757e+01  6.2977896079934261e+01  6.5768511990015952e+01  6.4838830625897799e+01  3.7896499935061250e+01  3.9786440981783024e+01  4.1780112584642559e+01  4.0296478648418081e+01  4.2395856843440654e+01  4.2260743392122500e+01  4.6642792425423600e+01  3.8949202943859923e+01  3.9616845201951826e+01  4.4488370340680298e+01  4.4579625564845387e+01  7.1775449858466516e+01  7.6709436630639175e+01  7.3056506808725118e+01  7.7688096668912308e+01  8.0690232091387173e+01  7.0063625264369307e+01  6.4441956021936576e+01  6.8786458366477660e+01  6.6433513041703947e+01  4.9364134825364864e+01  5.3750124092269104e+01  5.5255833599914489e+01  5.0086216957937644e+01  7.1381694791067417e+01  6.8370946865083440e+01  6.8804896225258489e+01  6.5881484159157992e+01  3.4961391063815078e+01  3.4169332627867384e+01  6.0905538240762951e+01  5.9765008105478920e+01  5.8479624946718062e+01  7.0517102399201448e+01  6.8079929004879347e+01  7.1500294249423192e+01  6.8266102067176789e+01  5.3802160211052261e+01  4.9907887746156611e+01  4.9922871188721501e+01  5.1592639973789829e+01  5.0646712804030756e+01  5.2406504976047295e+01  3.6969438992240299e+01  3.6091295639928433e+01  3.6874497864310101e+01  3.6041379439728132e+01  3.6505344840597125e+01  3.6416264951131716e+01  4.5222027532510012e+01  4.5642860082231550e+01  4.7015465079194477e+01  4.5560464329729740e+01  3.9988516899567252e+01  4.5689187326763779e+01  4.5826273144622483e+01  4.6790235967325522e+01  4.1026376281140578e+01  4.3723974192915492e+01  5.6430820717111558e+01  5.8673301304290646e+01  5.6251621333040688e+01  5.4851112727702805e+01  4.0458218306222726e+01  4.4121177485262493e+01  3.9506118451938001e+01  4.4666762365908987e+01  3.7329489092245133e+01  3.4746177998866074e+01  3.7158318392630754e+01  3.5883289317820164e+01  3.6230616272785227e+01  3.5402343583793815e+01  3.6857458971107029e+01  6.1972265138421825e+01  6.1998393433249468e+01  6.4648740676311220e+01  6.5282191196222399e+01  7.0208286231438549e+01  4.8682513631530497e+01  4.9058300132070045e+01  7.0297135985254201e+01  6.1856132650275327e+01  5.8577084915626685e+01  5.7673681993000535e+01  6.1296222216560516e+01  6.8259390105324385e+01  6.6337184951898323e+01  6.3387516948581016e+01  6.3054651917863985e+01  5.7150582753302679e+01  5.2309559255303640e+01  3.8086320746982828e+01  3.8335825532314999e+01  3.7567396108742855e+01  5.8828177542555984e+01  5.9848901340329093e+01  7.5536367144959485e+01  7.8402776477364597e+01  7.2298237898047660e+01  7.6353456133408883e+01  7.2811689553678761e+01  7.2570807690615652e+01  6.6884715622728876e+01  6.6771395397798386e+01  5.3792433235208300e+01  3.8057309723543362e+01  5.6518758654165040e+01  5.8780281173790343e+01  3.5092154518500372e+01  3.5853231457415177e+01  3.5046957981035476e+01  4.2198953274506707e+01  4.4651028946615945e+01  5.0619385343559593e+01  4.7263790637900513e+01  4.7183543184935395e+01  5.0326573169159609e+01  5.9259736066663095e+01  5.9478644483712380e+01  6.0256378030144297e+01  6.0201074933389876e+01  6.3804304183552894e+01  6.3629595079351986e+01  5.4102520558222928e+01  5.0029571563285067e+01  4.7844717145286197e+01  5.0511872304048481e+01  4.8089570796236188e+01  4.5285914345599465e+01  4.6773143976259384e+01  5.5094068074353629e+01  5.1546100861868020e+01  7.5138002218920121e+01  5.3265433352825703e+01  4.9890496676760726e+01  6.0681588989020135e+01  6.3770167212473744e+01  6.8616344417329501e+01  6.6509164716172947e+01  3.6795550017703242e+01  3.4101959851538254e+01  3.6689145639517136e+01  5.9496016082559784e+01  3.5752048699861689e+01  6.0144153090984581e+01  4.1269026267176187e+01  3.7986173137361625e+01  6.1105520084278510e+01  4.7049839444108038e+01  6.6941632793380364e+01  3.6024384752864492e+01  3.6541835396144428e+01  3.5877655018754773e+01  3.6000616444108452e+01  3.5838731040155317e+01  6.0365984825402890e+01  4.1880090468308438e+01  4.4237289556062422e+01  4.3082285327781847e+01  7.4699601489003044e+01  5.7080771153451408e+01  5.1044375889079916e+01  5.1264519832576987e+01  5.2664058148189255e+01  3.4775137916746552e+01  6.7917081239000851e+01  6.8573283010495885e+01  3.6577864428089498e+01  3.6372603961390077e+01  4.5246126072731244e+01  4.5302744772616371e+01  4.2057091396642740e+01  5.5627241458459025e+01  5.8909466144440152e+01  6.0419304737925870e+01  5.8047061161088806e+01  6.1373057560133560e+01  3.8686121847809304e+01  3.7618577187078422e+01  3.8097035438296679e+01  3.7799959335814052e+01  6.8580938047253454e+01  3.7747807134758759e+01  3.9489568496387157e+01  4.0379354413759046e+01  4.7857279642726446e+01  4.7982611564076336e+01  4.8534509777401510e+01  4.6785915680869785e+01  3.8683521733950165e+01  3.7285949600980658e+01  3.7999544430088193e+01  4.8114246594901786e+01  7.2026447149787387e+01  7.2664791559306707e+01  7.3807891663816520e+01  6.1993343173625632e+01  6.5816128907937824e+01  5.1034728070719360e+01  4.8689708669774951e+01  4.8043562837986066e+01  4.9173897126195151e+01  6.2811177009402250e+01  6.0003686936254553e+01  6.0671114533569011e+01  3.5744787779552681e+01  3.5518241465308314e+01  3.5511720521062990e+01  5.1673882630531985e+01  5.3363363437428795e+01  5.2545784796691422e+01  5.0764339373092234e+01  6.5087109895608009e+01  3.5919064216029483e+01  3.6112386142476517e+01  3.6085073503199290e+01  5.9928491024791484e+01  5.9731635064859063e+01  5.9765577925695752e+01  4.2274530561772970e+01  4.3495356816610496e+01  4.4264101272515504e+01  3.7188206413612917e+01  3.5156687896152171e+01  3.5440770472076316e+01  6.0868747494374638e+01  6.2402736934264610e+01  6.1519075476818585e+01  6.0720065733724503e+01  6.0703261017610060e+01  6.1191912397657781e+01  6.0308533556689071e+01  4.4753979486564013e+01  3.5550907792081389e+01  4.5543796506080817e+01  6.7390723692010098e+01  4.9886251328463992e+01  4.9396972339453370e+01  3.5861333241441166e+01  3.6932071700909987e+01  3.7084138419756869e+01  3.8427134295565949e+01  3.7550623085081376e+01  3.6694317990725281e+01  4.9335390493314456e+01  4.7922863254668968e+01  4.8581408350087969e+01  6.0176858777729784e+01  6.0098916647326391e+01  3.7152458698960636e+01  3.8151318477149339e+01  4.0138698615697372e+01  4.0840913115906872e+01  4.5641301718288027e+01  3.9106066746797346e+01  3.9555150679693980e+01  3.8614597823431517e+01  4.7029207414328894e+01  7.4073733460716554e+01  4.9842630034715434e+01  5.2130847651312436e+01  5.1642670149268902e+01  6.6720100159053885e+01  6.7428831770860498e+01  6.6031530274322023e+01  5.0682391687519377e+01  5.2745383809357151e+01  5.0622425002287962e+01  4.4462529091380951e+01  5.4143886028130346e+01  5.4305829512128376e+01  3.7691420329646846e+01  3.7402234992954838e+01  6.3172209678473479e+01  6.2756994892837128e+01  6.4066934155576590e+01  3.7911331729429911e+01  3.5809962641374334e+01  </DataArray> 
</PointData> 
</Piece>
</UnstructuredGrid>
</VTKFile>