<?xml version="1.0"?>
<VTKFile type="UnstructuredGrid"  version="0.1"  >
<UnstructuredGrid>
<Piece  NumberOfPoints="784" NumberOfCells="1320">
<Points>
<DataArray  type="Float64"  NumberOfComponents="3"  format="ascii">266913.131276 586512.314988 0  266738.13716 587762.325998 0  266363.132677 589012.328643 0  266175.641078 590169.601714 0  265666.575631 591040.7699119999 0  264875.64001 591687.766419 0  264900.636161 591845.049083 0  266088.14152 592012.3229499999 0  265561.959259 592661.17101 0  264288.136855 593037.368683 0  263865.194033 593999.8486949999 0  263850.641856 593236.729596 0  263625.634872 592756.525286 0  262689.574249 593299.848918 0  262475.636737 594003.0907310001 0  261934.554452 594340.929792 0  261725.631329 594932.094409 0  261729.256443 595728.498809 0  262138.136044 595012.330523 0  262288.141035 596262.333669 0  261488.994028 597511.480605 0  261234.15567 598316.338928 0  260815.635063 599014.863821 0  261400.643658 599389.7367680001 0  261322.963374 600022.185065 0  261119.455248 600931.061306 0  261607.436504 601293.0629359999 0  260807.446929 602089.899812 0  260025.642878 602988.868697 0  259613.135827 603937.3854499999 0  259050.643123 604100.987861 0  258411.880065 603988.6335979999 0  257764.357469 604449.872569 0  257971.239668 605320.429125 0  258041.396867 605740.635381 0  257188.143339 606987.394312 0  256038.141198 608112.3554550001 0  254788.141633 609087.4026939999 0  253588.140656 609812.362881 0  252338.135706 609737.4048949999 0  251088.138116 609787.404055 0  249963.12851 610287.399466 0  248613.130524 610462.365857 0  247363.132198 610687.407659 0  246113.130532 610837.411551 0  245832.347438 610918.209918 0  245016.946433 610958.5639439999 0  244313.129646 610762.372259 0  244400.622144 611378.093316 0  243939.669208 612460.8930899999 0  242960.649733 611984.892792 0  242170.381438 611919.647351 0  241888.122919 611112.375656 0  241393.380757 610467.6456149999 0  240594.157528 611306.369822 0  240525.621947 610804.648112 0  240363.123632 610512.3745050001 0  239113.123247 610262.374278 0  239813.12126 609037.412459 0  240588.122952 607812.368199 0  241013.119545 606625.9534560001 0  241454.373249 605724.888025 0  242238.120107 604687.3993 0  243088.121248 603462.362766 0  242860.319451 603007.3932640001 0  241563.116617 603812.361344 0  241778.400913 604327.642217 0  242059.837234 604824.879102 0  241475.620201 604923.2402390001 0  241462.182234 605449.881372 0  240906.219606 605674.888222 0  240241.856192 606891.125066 0  239891.734044 607841.012479 0  239048.653431 608724.889805 0  238118.054545 608974.895967 0  238888.111029 607337.406468 0  239738.119992 606212.362729 0  240288.12044 605687.4075229999 0  240380.212307 604729.521696 0  239347.309632 604603.204501 0  238888.112036 604387.408787 0  237913.11173 604687.401386 0  236784.172023 604499.882783 0  236883.408793 603717.08334 0  236154.933927 603595.565605 0  235688.103943 602912.369264 0  235763.108033 601662.366516 0  236363.110805 600412.35884 0  236738.107995 599162.356577 0  236525.607944 598482.2412899999 0  236138.109208 599362.357613 0  235725.063048 600325.4466510001 0  235091.948926 601408.5220979999 0  235188.10921 600312.366344 0  234375.602405 600833.9674270001 0  234663.109308 599912.358011 0  234138.105122 600062.365644 0  233955.307245 599029.561063 0  233338.103791 598387.401556 0  233988.09795 597862.356384 0  235138.101489 596637.3947750001 0  235563.1039 595387.392428 0  236513.103639 594212.356312 0  237163.10684 592987.3929869999 0  238313.103031 591862.3515540001 0  239513.107028 590812.3512640001 0  240638.102135 589787.387271 0  241463.109549 588587.378486 0  242294.489816 587443.735215 0  242913.101099 586512.341804 0  243544.066915 585474.859604 0  243040.448415 585184.975583 0  242438.10214 585337.38015 0  241313.102353 586562.339499 0  240538.107104 587787.382449 0  240114.641085 588588.939407 0  239388.100256 589437.382238 0  238188.104456 590512.346358 0  236938.100507 591362.349798 0  235813.10453 592537.396388 0  234864.502938 593178.7753880001 0  234463.097651 592862.357267 0  235113.0965 591662.3545979999 0  235713.101522 590412.346099 0  235777.688431 589976.7582779999 0  234943.583145 590706.265132 0  234462.482256 591490.2841159999 0  233801.497784 592112.940187 0  233388.099101 591787.394208 0  234013.093099 590437.393065 0  234776.217248 587148.7548100001 0  235163.093726 586562.3486189999 0  235313.098918 585483.229012 0  235250.59732 584662.298153 0  235588.093896 583337.379493 0  236329.432041 582199.858992 0  237188.096234 581462.3349939999 0  237463.088521 580212.335511 0  238350.592558 579057.652616 0  238591.415797 578574.847681 0  238313.094106 577612.328905 0  239229.696732 577695.769664 0  240195.161018 577513.008613 0  240614.996733 577149.8518770001 0  240663.091715 577412.332622 0  240288.092486 578662.334085 0  239942.357258 579508.095811 0  240438.100019 580212.3334220001 0  241338.095553 580387.375355 0  241238.099828 579137.369157 0  241788.097003 577887.370889 0  241983.554649 577241.9220939999 0  242054.178239 576927.8105029999 0  242588.100699 575737.366175 0  243149.324833 574898.583978 0  243695.278626 573919.517981 0  244268.494418 573724.8454239999 0  244995.134063 573930.2767810001 0  245417.314363 573391.601898 0  243450.599125 571859.479773 0  245776.797908 572599.8353060001 0  246779.639852 572973.285167 0  248034.741935 573186.082054 0  249413.10651 573162.3205520001 0  250496.922226 573271.1521899999 0  251613.105126 573237.3551319999 0  252421.824577 572846.032906 0  253256.245022 572580.4733130001 0  253739.471933 571960.9547369999 0  254174.511864 572149.8346569999 0  254484.944333 571684.194807 0  254384.108649 570891.346712 0  254344.002752 570218.26407 0  255025.609604 570829.0294979999 0  255715.005913 570489.264586 0  256218.846343 570774.828355 0  256834.349083 570508.5908 0  257390.092515 570014.308325 0  257624.431042 568493.478911 0  259355.811717 569380.021819 0  260033.372814 569617.066669 0  262679.741751 570320.699974 0  263289.115756 569524.817815 0  263463.114338 570512.301061 0  264638.198419 570687.3443539999 0  265058.220065 571334.378467 0  265447.561421 572077.90485 0  265488.125257 573137.3446020001 0  265131.937715 573963.293593 0  265432.389648 575093.068786 0  265638.122314 576338.029955 0  265750.630817 577371.8281319999 0  265738.570663 578561.9098850001 0  265875.630866 579139.630549 0  266213.129247 579862.311842 0  266563.130472 581112.314509 0  266238.135356 582362.310259 0  265938.12863 583612.320897 0  265738.131342 584762.3210189999 0  266875.638633 585365.358768 0  264018.7239399826 593650.4646671159 0  262236.3944351029 595831.1252656333 0  241846.246678 605206.1436625 0  240200.622106 608424.8903290001 0  240943.4862974102 610939.7757535663 0  236550.6094 599787.3577085 0  238528.1212051503 608102.9081793013 0  244413.4891967989 572609.5960859474 0  236382.0474488751 598808.3067022427 0  235369.601910944 600933.5380148316 0  235413.099011 591037.3503485 0  235446.2251831186 590266.6553871984 0  240475.5921005 578037.3333535 0  240413.173949154 577324.4280286073 0  240574.037899 606283.0066440001 0  263857.9179445 593618.2891454998 0  264153.4303974913 593343.916675058 0  242042.1833925 604946.7714812499 0  241650.3099635 605465.51584375 0  244613.6985165 572229.6575395 0  236631.8579695 598822.2989335 0  235140.029068 600860.444221 0  241767.7287175 604874.0596705 0  242140.15174975 604817.0853906251 0  234781.8558075 600573.1668855001 0  242091.167571125 604881.9284359375 0  234519.3558565 600373.162719 0  254604.8337712102 583989.0014118921 0  250699.5846056537 594617.3297041012 0  250540.4796469513 602258.2940568649 0  248483.7490186612 580334.7345534252 0  258549.2190328319 577893.951823392 0  257067.0067473103 590016.5327808241 0  243285.0921999099 596333.923437875 0  248333.1386145258 589098.0389905117 0  256142.8445072741 595883.3911551933 0  260245.1368072523 583315.2785712298 0  253472.3380211276 578932.2908163272 0  246432.3347504817 599884.5019511909 0  261555.9240922556 588041.186709004 0  247293.1100123104 605823.8307887657 0  246458.2798550911 593168.8646574575 0  252840.0183145193 588226.5564648228 0  249828.2874404451 584740.7888937403 0  255409.5660975206 600458.8956828594 0  260819.9733392385 574219.403683011 0  252584.2262054711 605722.6603825617 0  254049.8830611471 592547.4852571967 0  250015.4356193061 598425.2225922942 0  245872.072249477 577604.9761853142 0  262002.1583249522 579753.4663046852 0  257732.6630933878 586227.970805314 0  250242.5556457866 577017.3316409125 0  244921.6453001869 581816.6358421432 0  256520.3890639471 580904.824006648 0  240779.0970645865 599524.6679555867 0  257100.1829219198 574459.5922545703 0  239912.2630002034 595231.1172704464 0  244703.0875078634 590068.6945953515 0  242549.5490268674 592874.3693043783 0  251586.0465921376 581796.2215047925 0  246643.189997516 596527.447801719 0  251049.7658069622 591057.6752245198 0  253014.5731561695 596998.6601086652 0  238680.2197353724 584542.2309791476 0  259715.365803504 591937.1938619445 0  254097.157218761 575731.4494927844 0  246806.6408589328 586139.0877599345 0  246136.1179750556 602959.471719323 0  253520.7033332401 602835.180253843 0  244125.4295793909 607538.9817227355 0  252546.8895354472 599881.3279113505 0  258289.0983523553 600397.640191779 0  247518.7952199645 583037.3718217331 0  263140.3959879661 582529.2228421422 0  262894.8586894067 585442.3590432997 0  256968.6320599076 593040.7691844478 0  243573.0187527719 600218.2795730785 0  258888.5766127351 595139.7745218446 0  262588.7569809347 576734.8569237856 0  259318.4257992262 580601.2540325444 0  249963.3812725965 607065.7205847671 0  257494.5307999607 583482.5893534871 0  258906.4757205145 572278.8089438241 0  237751.446593475 587300.5805003279 0  255142.4708720699 604956.7580261135 0  258485.4978753244 597756.9250383095 0  255516.7820591553 587791.39641967 0  239758.4692108706 601926.8203218657 0  255873.0092222999 577739.5085867504
[...]
<PointData  Scalars="f_32-1"> 
<DataArray  type="Float64"  Name="f_32-1"  format="ascii">3.7670776744457704e+01  3.8892725640598492e+01  4.0787115334634031e+01  4.2503199824771507e+01  4.3748231806326700e+01  4.5621577893028423e+01  4.6238364806486203e+01  4.6562927394827682e+01  4.6645039996980415e+01  4.7452935115011897e+01  4.8018233408425701e+01  4.7747521202046535e+01  4.7751961244131451e+01  4.9915259996628599e+01  5.1169541339534895e+01  5.2231035338116726e+01  5.3542557443965457e+01  5.4819708335417751e+01  5.4683770099361567e+01  5.5175241949779760e+01  5.7315967290201243e+01  5.8931748840957830e+01  6.0692156718686327e+01  6.1605957982731987e+01  6.2118437112152797e+01  6.3382154651084178e+01  6.3744423848293813e+01  6.4476590348828012e+01  6.5797809631561236e+01  6.6552873668635840e+01  6.6707067244329281e+01  6.7056803475604283e+01  6.7993623740249134e+01  6.8800735609688729e+01  6.8956793417795410e+01  6.9800198530702517e+01  7.0983323862367399e+01  7.2245234546619443e+01  7.3169671985322225e+01  7.3907795159237409e+01  7.5020007614195706e+01  7.6065127086683574e+01  7.6989884212552781e+01  7.7790795176829050e+01  7.8497648350552410e+01  7.8644008919348408e+01  7.9015118743004010e+01  7.9502538051699361e+01  7.9905286769406956e+01  8.0101037769126776e+01  8.0148490864189412e+01  8.0192395022369169e+01  8.0167072051051207e+01  8.0241227452693934e+01  8.0463758613022634e+01  8.0445329797839136e+01  8.0447234206101555e+01  8.0542889933604499e+01  8.0294870361267044e+01  7.9591460181358684e+01  7.8831688603791250e+01  7.8205798709215856e+01  7.7224432104664103e+01  7.5627936488601804e+01  7.5423468898890164e+01  7.7410443642971046e+01  7.7923448502958948e+01  7.8039442487017283e+01  7.8186972248146489e+01  7.8391517271550384e+01  7.8657176570212300e+01  7.9633399681064972e+01  8.0029549149572972e+01  8.0289779204827582e+01  8.0353340388337912e+01  8.0061126324447201e+01  7.9473447733349730e+01  7.8919688142729342e+01  7.8359679407957373e+01  7.8744166594795530e+01  7.9042624916966687e+01  7.9434858165725444e+01  7.9539012704346703e+01  7.9538412547155204e+01  7.9587548122084584e+01  7.9568262061481036e+01  7.9310256865878529e+01  7.8493922369275936e+01  7.7130292128505502e+01  7.6991852599576191e+01  7.8370204178613506e+01  7.8969530845318019e+01  7.9147375001799801e+01  7.9018646531112353e+01  7.9112996603503078e+01  7.8971705080321613e+01  7.8970331814390590e+01  7.8795404808905417e+01  7.8723727952148806e+01  7.8451901591720116e+01  7.6349850168159108e+01  7.4112142008480234e+01  7.1203469166635983e+01  6.8407961879246258e+01  6.5723820429643652e+01  6.3589225467521082e+01  6.1998194834895820e+01  6.0612212714840993e+01  5.9080505476362042e+01  5.7717222236090670e+01  5.5990839956854657e+01  5.5279505346382187e+01  5.5553790487699210e+01  5.8374977898076615e+01  6.0499279901758932e+01  6.1320183084120650e+01  6.2168793647196253e+01  6.3695172514312098e+01  6.5897225874340549e+01  6.8709193725068687e+01  6.9583781345773119e+01  6.9593968129364541e+01  6.8292853661357228e+01  6.5949176348946807e+01  6.5565286901072014e+01  6.7643862505972564e+01  6.9100151947626927e+01  6.9621268384464116e+01  6.9628417409537420e+01  6.8043228966526286e+01  6.3558152262420094e+01  6.2903592810444430e+01  6.1955449770945322e+01  6.1444986192844880e+01  6.0607817126905715e+01  5.9531406925167694e+01  5.8257855234232593e+01  5.7056372887087008e+01  5.5946436836926843e+01  5.5461702589356022e+01  5.5183651052386068e+01  5.5043581260180304e+01  5.4653906736318859e+01  5.4541838993134604e+01  5.4555215045314476e+01  5.5035239624732718e+01  5.5683774081092601e+01  5.5795438128766676e+01  5.4760775675313745e+01  5.3643232417578503e+01  5.2556658473098985e+01  5.1887969240262009e+01  5.1594032189634007e+01  5.0197920911614275e+01  4.8902713401257877e+01  4.7706646655030674e+01  4.7341476140742877e+01  4.6267617070942208e+01  4.4915599544303987e+01  4.5137983459893711e+01  4.4512524762092099e+01  4.3723847292769186e+01  4.1980691461544282e+01  3.9958424657038442e+01  3.8699948664709588e+01  3.7273360526784991e+01  3.6067422951816226e+01  3.4886805396811781e+01  3.4224672828007641e+01  3.3802519392881528e+01  3.2852095290030952e+01  3.2270139628159406e+01  3.2200085648021400e+01  3.2090042874833188e+01  3.1563886366411307e+01  3.1113788360668909e+01  3.0098292781043082e+01  2.9278703652309837e+01  3.0081025052479941e+01  2.8421638420664660e+01  2.8470175378279428e+01  3.0206165077899541e+01  3.0227353676903885e+01  3.0463116577819623e+01  3.0055039091354288e+01  2.9541889703216192e+01  2.9147285735974076e+01  2.9263468394022926e+01  2.9777488030466827e+01  3.0480852040488163e+01  3.1178543329935820e+01  3.1919953402810307e+01  3.2889292146589135e+01  3.3272002182378671e+01  3.3715107553826797e+01  3.4975737913603325e+01  3.6859292816457135e+01  3.7713925205715732e+01  3.7226023647472154e+01  3.7155617323595202e+01  4.7948005375795660e+01  5.4930805739303864e+01  7.7759856175456406e+01  7.9997455014692449e+01  8.0434724176388045e+01  7.7840706201706752e+01  8.0265565771742644e+01  4.4927621686987862e+01  7.7692830562467094e+01  7.9113611190179483e+01  6.7110352456732500e+01  6.6351885763652959e+01  5.4726399859531028e+01  5.4565050792677710e+01  7.9209998640801331e+01  4.7948289581676796e+01  4.7781409211179458e+01  7.7503730874623500e+01  7.7998655067102334e+01  4.4926578988584666e+01  7.6845949023785124e+01  7.9113637921106800e+01  7.8065195263248782e+01  7.7367926507304702e+01  7.9082333432890167e+01  7.7436749418636964e+01  7.9081898066859722e+01  4.5087855879450913e+01  6.1191470124665663e+01  6.9276128589611190e+01  4.7197290793962665e+01  3.3257042570982591e+01  4.8887255115140597e+01  6.8611746493168809e+01  5.6238141129289431e+01  5.8813209846974530e+01  3.8397595399835851e+01  3.9485765994455761e+01  6.9115217215963000e+01  4.2528579675970128e+01  7.4915833248628502e+01  6.1904582150207510e+01  5.0116795871941342e+01  5.1754402680761309e+01  6.3160419886182098e+01  3.0804266324880764e+01  7.1221507605350780e+01  5.6368479401499371e+01  6.4917792489972499e+01  4.7660885027758020e+01  3.3619012608412419e+01  4.3274844498387246e+01  4.1276960020204740e+01  5.2635573442790069e+01  3.9252068999474993e+01  7.4165798710740404e+01  3.3480914059248434e+01  6.9104706778061242e+01  5.9635452314314975e+01  6.3906566121583481e+01  4.6266899038827574e+01  6.6306722622081921e+01  5.5612899428913352e+01  6.2219449775258525e+01  5.9249086069163781e+01  5.0956746622789588e+01  3.5232650076054746e+01  5.4696798713220879e+01  7.2899526895958417e+01  6.8111902285639019e+01  7.8117263175602417e+01  6.5189218595421664e+01  6.3552128934903905e+01  5.1403167537664466e+01  3.6078419010053160e+01  3.7983891507989973e+01  5.4431413516806359e+01  7.2217816592450191e+01  5.5651242853566472e+01  3.2079616836691940e+01  3.5696550192111957e+01  7.4155047878596989e+01  4.1327064085951157e+01  2.9233746117299788e+01  6.1866160353738820e+01  6.9270984527585796e+01  5.9624928595217533e+01  4.5836665229920335e+01  7.7962100082694349e+01  3.5074897169551612e+01  4.6442097094091082e+01  5.4693613702793023e+01  5.9858680963937857e+01  5.1547708098307908e+01  4.3023520720688602e+01  3.9885771989451356e+01  5.1827348673547768e+01  4.3887427180515139e+01  4.3713777108416664e+01  4.0715601707235272e+01  4.5300654584609042e+01  7.7253399823097425e+01  7.1702743907281317e+01  4.8450705628939325e+01  7.5958553545278761e+01  6.9246776335747370e+01  6.7794857959309155e+01  7.3541300232035226e+01  5.7185645572044670e+01  5.3988436518523201e+01  6.0812964437819957e+01  6.6124897193415791e+01  5.3045166831862204e+01  7.1545785901788207e+01  4.6666384139572941e+01  5.9936722704624820e+01  2.9711453332626487e+01  4.5273735772302715e+01  6.3121543342775944e+01  7.0708317621847556e+01  5.8927344452093436e+01  6.4808965793526980e+01  5.7304847358995687e+01  6.5309592925057359e+01  3.2637765183581813e+01  4.8770093056550827e+01  4.8709577978816064e+01  7.2884880460135548e+01  6.1876900944392247e+01  3.4258539833526370e+01  7.2473428181895727e+01  5.8174025668529481e+01  7.7103269692641575e+01  3.0499414039428071e+01  7.7466251573114803e+01  7.7405861559372553e+01  5.0576622069765662e+01  4.6573813222439838e+01  7.7472061581360421e+01  7.8398718644903227e+01  7.5794465697311509e+01  7.7864860370565737e+01  6.5362159904855048e+01  3.2986939677762166e+01  7.3844090416221050e+01  6.9260351770861604e+01  5.1388160794957656e+01  4.6187948713931512e+01  4.3121083653323367e+01  7.8131634440535350e+01  7.7403510534377631e+01  5.3355643010141144e+01  7.8498496787621463e+01  7.6508263056417505e+01  7.6961306923403171e+01  7.8553777073363420e+01  5.4644048277233033e+01  4.4775236962367202e+01  6.4980392253694944e+01  3.1223997672696704e+01  4.4780007108084455e+01  3.3584996109212760e+01  6.3184271282495061e+01  7.9772878730670044e+01  6.0964897399314125e+01  6.6573079047020798e+01  7.6253728538705715e+01  5.4723686670260818e+01  2.8215876053255549e+01  6.5848110630664422e+01  3.6049294643070347e+01  4.7809896576003709e+01  7.7630968901930601e+01  7.5816386128956495e+01  5.6648944219762384e+01  7.9778995382699634e+01  4.0111376693942127e+01  7.8136702217236760e+01  5.8340915685776096e+01  2.9696373105399697e+01  3.3140790727368064e+01  3.4036533845843707e+01  6.6330525648808717e+01  7.4779773723943151e+01  7.4115042060077187e+01  6.2731306389105946e+01  7.7886435214258341e+01  5.4760579072837409e+01  4.4752399815758082e+01  4.4743771253131563e+01  2.9586384364589655e+01  7.7470869116462964e+01  7.7633826953346372e+01  7.7698365591452031e+01  6.9013909563193138e+01  7.4530597759008572e+01  7.7791345993522896e+01  7.6358883379726507e+01  6.1138660762140809e+01  8.0381331042428855e+01  8.0325326069501912e+01  5.5859149987075334e+01  3.2072836259744030e+01  5.5666133943826182e+01  7.4986989034948422e+01  5.1123439685950309e+01  5.9074822008993301e+01  7.9978107845209280e+01  5.6303393848865596e+01  6.7071786198329164e+01  3.7390547543962747e+01  5.1638879780355850e+01  5.0928326057163716e+01  5.2191677506615655e+01  7.8559605169238054e+01  4.6036270748519250e+01  4.6875376251879281e+01  4.5122665257782025e+01  4.6756563197263134e+01  4.3289270329034153e+01  3.0070710565660228e+01  2.8487302899075704e+01  4.7754118805429073e+01  5.0325442240547126e+01  6.9303412455341942e+01  6.9217488392208097e+01  8.0179596673424825e+01  6.1216059271298420e+01  5.9417907747802985e+01  5.5641302426525456e+01  5.5118530121092242e+01  5.5215592735510548e+01  5.5286525151762660e+01  5.5089833438733791e+01  5.5002933779382310e+01  5.6801870067500069e+01  5.5088267968092019e+01  5.5573395303974408e+01  5.8477372789812868e+01  5.6873078250274091e+01  5.3602330982403977e+01  5.4967898776604969e+01  4.0874136850419909e+01  4.2496276395430797e+01  4.0789209916747183e+01  3.9325796227278509e+01  3.9845620982024762e+01  3.8030150441551314e+01  3.9211914101154846e+01  3.8592694383647213e+01  3.5546687833970644e+01  3.4445949520844565e+01  3.1079451082904207e+01  3.1529900103777020e+01  3.1497366259840351e+01  3.2409203631498585e+01  3.1905972764467467e+01  3.3097526107452936e+01  3.3181446810317219e+01  3.2435584603601022e+01  3.3491175573821735e+01  3.3332384478770706e+01  3.3986752686715604e+01  3.3497905272603823e+01  3.4613053499450650e+01  3.6992657824190921e+01  3.5545722471275788e+01  4.3490727503204873e+01  4.2538409057944349e+01  4.2989628303345555e+01  4.6095281035550919e+01  6.2430518701786376e+01  6.1613513243543068e+01  6.0661223941764220e+01  6.2053839524959798e+01  6.7547261753618344e+01  7.0525635626664183e+01  6.8619582104746527e+01  7.0310586225435500e+01  4.9629891018006361e+01  4.5656358188558514e+01  4.6054046270438874e+01  4.7868828278019535e+01  3.3751910960862695e+01  3.5192663828449518e+01  3.3510484450451379e+01  3.4191933991040393e+01  3.3580980367994478e+01  3.3166008359835871e+01  5.0173189646501712e+01  5.1884992803284440e+01  4.7173079323360561e+01  4.9965597682749674e+01  4.7019423712652014e+01  6.8973193020839744e+01  6.6452222043253272e+01  5.5602212642575410e+01  5.5461832941984895e+01  5.7602545892212845e+01  5.4727583903691134e+01  5.7562875801012609e+01  5.6616582788486909e+01  5.7825296931889660e+01  6.0627482195875153e+01  5.9489658196109275e+01  3.5183612863221420e+01  3.6583098020272189e+01  3.8159435204541097e+01  3.7188667698233594e+01  3.9798375144035425e+01  3.9297589854115763e+01  4.3324373243146916e+01  3.6718115112249414e+01  3.7176249345448326e+01  4.1394311520069770e+01  4.1793541622515839e+01  6.6932775705569910e+01  7.0866221406443501e+01  6.8161141945934546e+01  7.1496277691567670e+01  7.3991913168282082e+01  6.4283239797744642e+01  6.0389087987765642e+01  6.3248963933500001e+01  6.1796987578483815e+01  4.7690088917584120e+01  5.0993057160028215e+01  5.1545811049335484e+01  4.7781308011490239e+01  6.5842792089529198e+01  6.3482469005675313e+01  6.3496347178974460e+01  6.1383003844548718e+01  3.2052261417652275e+01  3.1156603210698837e+01  5.6288051818118454e+01  5.5327085690580304e+01  5.4284408852099439e+01  6.5394943833503064e+01  6.3439609815253704e+01  6.6617231689919649e+01  6.3574601861766567e+01  4.9510073517889438e+01  4.5970328129217208e+01  4.6320584881865848e+01  4.7783707855992084e+01  4.6458715244876934e+01  4.8027844657113420e+01  3.4222896287863875e+01  3.3341577843840717e+01  3.4282363387299654e+01  3.3352047192933469e+01  3.3781838997254759e+01  3.3766491659118600e+01  4.2248070566155249e+01  4.4313807832504473e+01  4.4054760258865151e+01  4.4342642081649153e+01  3.7437143661984827e+01  4.2430154797497188e+01  4.2424091567658515e+01  4.3510146098702450e+01  3.8196804111017642e+01  4.0596315628330451e+01  5.2431696976769622e+01  5.3854019612735769e+01  5.1817572603003462e+01  5.1234752765851020e+01  3.7276826475599087e+01  4.0572998278166502e+01  3.6619427156472902e+01  4.1163526711226652e+01  3.4405425085082513e+01  3.1807426405933839e+01  3.4281703038277158e+01  3.3072301741831403e+01  3.3226955792976014e+01  3.2461574049083829e+01  3.3831538531542442e+01  5.9183088483246394e+01  5.8388413763767829e+01  6.0755022059141552e+01  6.0510925497921725e+01  6.4389304325222241e+01  4.4698571151621309e+01  4.5150420864902877e+01  6.4668043743680613e+01  5.7679336739711587e+01  5.4579693074850297e+01  5.3970806562740037e+01  5.6913959515683480e+01  6.3442255915431168e+01  6.1569360181046441e+01  5.8133556781880081e+01  5.7840987409013096e+01  5.2590284975876592e+01  4.8201069172224905e+01  3.5572933314669619e+01  3.5327189397209771e+01  3.4515467250973501e+01  5.4153402611291263e+01  5.5975823798337366e+01  7.0048965356010370e+01  7.2129353696687957e+01  6.6599354600354317e+01  6.9937526737980875e+01  6.6912514927004182e+01  6.7100308562590556e+01  6.2307201042804891e+01  6.1734359231045026e+01  5.0886594134092206e+01  3.5074692436716262e+01  5.2994522018614767e+01  5.3854334105019468e+01  3.2190334927764795e+01  3.3147027696673604e+01  3.2156365826710228e+01  3.8792245444326994e+01  4.1079590405737406e+01  4.8546654622950889e+01  4.5311292205769227e+01  4.5842585833162197e+01  4.6169879243469630e+01  5.4449652050987602e+01  5.4615579014017342e+01  5.5279044886331619e+01  5.5231173763317123e+01  5.9356852558737636e+01  5.8912206373552877e+01  5.0012423060792194e+01  4.5860930718077050e+01  4.4515288423711375e+01  4.6384227979414142e+01  4.4516368818251649e+01  4.1798852996558466e+01  4.2994471804904364e+01  5.0858183928316770e+01  4.7834110323801838e+01  6.9586767407479925e+01  4.9707564338675802e+01  4.6716787261436671e+01  5.7876687759449311e+01  6.0387303664272800e+01  6.3148254491083762e+01  6.1500779328404612e+01  3.3923333823251689e+01  3.1192275728318027e+01  3.3620358431638230e+01  5.4696176583749384e+01  3.2986996167996381e+01  5.5176130346197283e+01  3.8154950440202967e+01  3.4786954559783382e+01  5.6054845151189888e+01  4.4705957994127075e+01  6.2255646258212174e+01  3.3521694941551253e+01  3.3801416647011415e+01  3.3236246548692812e+01  3.3311971042854765e+01  3.3240556146490832e+01  5.7100409334295591e+01  3.9573952654002291e+01  4.1508841725362231e+01  4.0636601378046642e+01  6.9411377681520904e+01  5.3564342998028252e+01  4.8888715971418215e+01  4.8821363238280306e+01  4.9629250274012350e+01  3.1934590812600831e+01  6.3488825627832910e+01  6.4026563516205343e+01  3.4029909728973053e+01  3.3745908342536332e+01  4.3190594595187889e+01  4.3667769896933173e+01  3.9246221329274348e+01  5.2070118040904084e+01  5.5399381028569195e+01  5.6578188884058036e+01  5.4576204877709095e+01  5.7201272119882695e+01  3.6079919431427484e+01  3.4773388032713505e+01  3.5195017750180448e+01  3.4876401427644943e+01  6.3690495993484234e+01  3.4908430117122428e+01  3.6429765115310289e+01  3.7233606721021040e+01  4.6413871256056581e+01  4.6673113215959596e+01  4.7036120315921615e+01  4.5450856893384078e+01  3.6117848283157961e+01  3.4495962540662148e+01  3.5402832527219921e+01  4.5358887736353324e+01  6.7278032736110220e+01  6.7874721563314736e+01  6.8762310297110034e+01  5.6858857003505513e+01  6.1353483017350676e+01  4.8054835275891712e+01  4.5637024165169862e+01  4.4898947460715526e+01  4.6046501630596936e+01  5.9609529379816621e+01  5.6872787951719857e+01  5.7533247707665844e+01  3.3231342161736364e+01  3.3005524109610086e+01  3.2830622289015082e+01  4.8103675610193150e+01  5.0040603666147142e+01  4.9820012925613383e+01  4.7544796449811983e+01  6.1155306139779348e+01  3.3087530637015519e+01  3.3430541688443157e+01  3.3332959490439414e+01  5.5021222590893444e+01  5.4820570641207944e+01  5.4862871931327795e+01  3.9225938380049584e+01  4.0331458638343946e+01  4.0913527640558868e+01  3.4152790409162222e+01  3.2262439293650310e+01  3.2631523864186448e+01  5.5824406215067256e+01  5.7235912531141551e+01  5.6419377987329668e+01  5.5698416130471642e+01  5.5676102837417474e+01  5.6137855773353721e+01  5.5329851490924753e+01  4.1211152616343547e+01  3.2704702998840659e+01  4.3926682464478674e+01  6.2920464851398883e+01  4.6879565451227023e+01  4.6378028926461511e+01  3.3404120682626825e+01  3.4120737327136546e+01  3.4390775721562413e+01  3.5464529046501191e+01  3.4718004673539831e+01  3.3849804144524867e+01  4.7027633457164896e+01  4.6131610271157136e+01  4.6133124969340841e+01  5.6430004472736897e+01  5.7239465039484344e+01  3.4490257512276628e+01  3.5246150935863071e+01  3.7912669364585852e+01  3.8359788719114079e+01  4.2631546569366108e+01  3.6786890332124898e+01  3.6851858864009742e+01  3.6200495026067031e+01  4.3627325174474464e+01  6.8997241901456135e+01  4.8060765724753672e+01  4.9759901805900853e+01  4.8693613779743814e+01  6.2140795603701179e+01  6.2739121640894794e+01  6.1580349469887075e+01  4.6984939786105755e+01  4.8825467775287272e+01  4.7137389454975775e+01  4.1172738545045206e+01  5.1129206061053807e+01  5.0463370808064262e+01  3.4965368291458155e+01  3.4429483902013779e+01  5.9979406258582813e+01  5.9745170845299775e+01  6.0573691749637028e+01  3.4847957724664091e+01  3.3090842453682008e+01  </DataArray> 
</PointData> 
</Piece>
</UnstructuredGrid>
</VTKFile>