<?xml version="1.0"?>
<VTKFile type="UnstructuredGrid"  version="0.1"  >
<UnstructuredGrid>
<Piece  NumberOfPoints="784" NumberOfCells="1320">
<Points>
<DataArray  type="Float64"  NumberOfComponents="3"  format="ascii">266913.131276 586512.314988 0  266738.13716 587762.325998 0  266363.132677 589012.328643 0  266175.641078 590169.601714 0  265666.575631 591040.7699119999 0  264875.64001 591687.766419 0  264900.636161 591845.049083 0  266088.14152 592012.3229499999 0  265561.959259 592661.17101 0  264288.136855 593037.368683 0  263865.194033 593999.8486949999 0  263850.641856 593236.729596 0  263625.634872 592756.525286 0  262689.574249 593299.848918 0  262475.636737 594003.0907310001 0  261934.554452 594340.929792 0  261725.631329 594932.094409 0  261729.256443 595728.498809 0  262138.136044 595012.330523 0  262288.141035 596262.333669 0  261488.994028 597511.480605 0  261234.15567 598316.338928 0  260815.635063 599014.863821 0  261400.643658 599389.7367680001 0  261322.963374 600022.185065 0  261119.455248 600931.061306 0  261607.436504 601293.0629359999 0  260807.446929 602089.899812 0  260025.642878 602988.868697 0  259613.135827 603937.3854499999 0  259050.643123 604100.987861 0  258411.880065 603988.6335979999 0  257764.357469 604449.872569 0  257971.239668 605320.429125 0  258041.396867 605740.635381 0  257188.143339 606987.394312 0  256038.141198 608112.3554550001 0  254788.141633 609087.4026939999 0  253588.140656 609812.362881 0  252338.135706 609737.4048949999 0  251088.138116 609787.404055 0  249963.12851 610287.399466 0  248613.130524 610462.365857 0  247363.132198 610687.407659 0  246113.130532 610837.411551 0  245832.347438 610918.209918 0  245016.946433 610958.5639439999 0  244313.129646 610762.372259 0  244400.622144 611378.093316 0  243939.669208 612460.8930899999 0  242960.649733 611984.892792 0  242170.381438 611919.647351 0  241888.122919 611112.375656 0  241393.380757 610467.6456149999 0  240594.157528 611306.369822 0  240525.621947 610804.648112 0  240363.123632 610512.3745050001 0  239113.123247 610262.374278 0  239813.12126 609037.412459 0  240588.122952 607812.368199 0  241013.119545 606625.9534560001 0  241454.373249 605724.888025 0  242238.120107 604687.3993 0  243088.121248 603462.362766 0  242860.319451 603007.3932640001 0  241563.116617 603812.361344 0  241778.400913 604327.642217 0  242059.837234 604824.879102 0  241475.620201 604923.2402390001 0  241462.182234 605449.881372 0  240906.219606 605674.888222 0  240241.856192 606891.125066 0  239891.734044 607841.012479 0  239048.653431 608724.889805 0  238118.054545 608974.895967 0  238888.111029 607337.406468 0  239738.119992 606212.362729 0  240288.12044 605687.4075229999 0  240380.212307 604729.521696 0  239347.309632 604603.204501 0  238888.112036 604387.408787 0  237913.11173 604687.401386 0  236784.172023 604499.882783 0  236883.408793 603717.08334 0  236154.933927 603595.565605 0  235688.103943 602912.369264 0  235763.108033 601662.366516 0  236363.110805 600412.35884 0  236738.107995 599162.356577 0  236525.607944 598482.2412899999 0  236138.109208 599362.357613 0  235725.063048 600325.4466510001 0  235091.948926 601408.5220979999 0  235188.10921 600312.366344 0  234375.602405 600833.9674270001 0  234663.109308 599912.358011 0  234138.105122 600062.365644 0  233955.307245 599029.561063 0  233338.103791 598387.401556 0  233988.09795 597862.356384 0  235138.101489 596637.3947750001 0  235563.1039 595387.392428 0  236513.103639 594212.356312 0  237163.10684 592987.3929869999 0  238313.103031 591862.3515540001 0  239513.107028 590812.3512640001 0  240638.102135 589787.387271 0  241463.109549 588587.378486 0  242294.489816 587443.735215 0  242913.101099 586512.341804 0  243544.066915 585474.859604 0  243040.448415 585184.975583 0  242438.10214 585337.38015 0  241313.102353 586562.339499 0  240538.107104 587787.382449 0  240114.641085 588588.939407 0  239388.100256 589437.382238 0  238188.104456 590512.346358 0  236938.100507 591362.349798 0  235813.10453 592537.396388 0  234864.502938 593178.7753880001 0  234463.097651 592862.357267 0  235113.0965 591662.3545979999 0  235713.101522 590412.346099 0  235777.688431 589976.7582779999 0  234943.583145 590706.265132 0  234462.482256 591490.2841159999 0  233801.497784 592112.940187 0  233388.099101 591787.394208 0  234013.093099 590437.393065 0  234776.217248 587148.7548100001 0  235163.093726 586562.3486189999 0  235313.098918 585483.229012 0  235250.59732 584662.298153 0  235588.093896 583337.379493 0  236329.432041 582199.858992 0  237188.096234 581462.3349939999 0  237463.088521 580212.335511 0  238350.592558 579057.652616 0  238591.415797 578574.847681 0  238313.094106 577612.328905 0  239229.696732 577695.769664 0  240195.161018 577513.008613 0  240614.996733 577149.8518770001 0  240663.091715 577412.332622 0  240288.092486 578662.334085 0  239942.357258 579508.095811 0  240438.100019 580212.3334220001 0  241338.095553 580387.375355 0  241238.099828 579137.369157 0  241788.097003 577887.370889 0  241983.554649 577241.9220939999 0  242054.178239 576927.8105029999 0  242588.100699 575737.366175 0  243149.324833 574898.583978 0  243695.278626 573919.517981 0  244268.494418 573724.8454239999 0  244995.134063 573930.2767810001 0  245417.314363 573391.601898 0  243450.599125 571859.479773 0  245776.797908 572599.8353060001 0  246779.639852 572973.285167 0  248034.741935 573186.082054 0  249413.10651 573162.3205520001 0  250496.922226 573271.1521899999 0  251613.105126 573237.3551319999 0  252421.824577 572846.032906 0  253256.245022 572580.4733130001 0  253739.471933 571960.9547369999 0  254174.511864 572149.8346569999 0  254484.944333 571684.194807 0  254384.108649 570891.346712 0  254344.002752 570218.26407 0  255025.609604 570829.0294979999 0  255715.005913 570489.264586 0  256218.846343 570774.828355 0  256834.349083 570508.5908 0  257390.092515 570014.308325 0  257624.431042 568493.478911 0  259355.811717 569380.021819 0  260033.372814 569617.066669 0  262679.741751 570320.699974 0  263289.115756 569524.817815 0  263463.114338 570512.301061 0  264638.198419 570687.3443539999 0  265058.220065 571334.378467 0  265447.561421 572077.90485 0  265488.125257 573137.3446020001 0  265131.937715 573963.293593 0  265432.389648 575093.068786 0  265638.122314 576338.029955 0  265750.630817 577371.8281319999 0  265738.570663 578561.9098850001 0  265875.630866 579139.630549 0  266213.129247 579862.311842 0  266563.130472 581112.314509 0  266238.135356 582362.310259 0  265938.12863 583612.320897 0  265738.131342 584762.3210189999 0  266875.638633 585365.358768 0  264018.7239399826 593650.4646671159 0  262236.3944351029 595831.1252656333 0  241846.246678 605206.1436625 0  240200.622106 608424.8903290001 0  240943.4862974102 610939.7757535663 0  236550.6094 599787.3577085 0  238528.1212051503 608102.9081793013 0  244413.4891967989 572609.5960859474 0  236382.0474488751 598808.3067022427 0  235369.601910944 600933.5380148316 0  235413.099011 591037.3503485 0  235446.2251831186 590266.6553871984 0  240475.5921005 578037.3333535 0  240413.173949154 577324.4280286073 0  240574.037899 606283.0066440001 0  263857.9179445 593618.2891454998 0  264153.4303974913 593343.916675058 0  242042.1833925 604946.7714812499 0  241650.3099635 605465.51584375 0  244613.6985165 572229.6575395 0  236631.8579695 598822.2989335 0  235140.029068 600860.444221 0  241767.7287175 604874.0596705 0  242140.15174975 604817.0853906251 0  234781.8558075 600573.1668855001 0  242091.167571125 604881.9284359375 0  234519.3558565 600373.162719 0  254604.8337712102 583989.0014118921 0  250699.5846056537 594617.3297041012 0  250540.4796469513 602258.2940568649 0  248483.7490186612 580334.7345534252 0  258549.2190328319 577893.951823392 0  257067.0067473103 590016.5327808241 0  243285.0921999099 596333.923437875 0  248333.1386145258 589098.0389905117 0  256142.8445072741 595883.3911551933 0  260245.1368072523 583315.2785712298 0  253472.3380211276 578932.2908163272 0  246432.3347504817 599884.5019511909 0  261555.9240922556 588041.186709004 0  247293.1100123104 605823.8307887657 0  246458.2798550911 593168.8646574575 0  252840.0183145193 588226.5564648228 0  249828.2874404451 584740.7888937403 0  255409.5660975206 600458.8956828594 0  260819.9733392385 574219.403683011 0  252584.2262054711 605722.6603825617 0  254049.8830611471 592547.4852571967 0  250015.4356193061 598425.2225922942 0  245872.072249477 577604.9761853142 0  262002.1583249522 579753.4663046852 0  257732.6630933878 586227.970805314 0  250242.5556457866 577017.3316409125 0  244921.6453001869 581816.6358421432 0  256520.3890639471 580904.824006648 0  240779.0970645865 599524.6679555867 0  257100.1829219198 574459.5922545703 0  239912.2630002034 595231.1172704464 0  244703.0875078634 590068.6945953515 0  242549.5490268674 592874.3693043783 0  251586.0465921376 581796.2215047925 0  246643.189997516 596527.447801719 0  251049.7658069622 591057.6752245198 0  253014.5731561695 596998.6601086652 0  238680.2197353724 584542.2309791476 0  259715.365803504 591937.1938619445 0  254097.157218761 575731.4494927844 0  246806.6408589328 586139.0877599345 0  246136.1179750556 602959.471719323 0  253520.7033332401 602835.180253843 0  244125.4295793909 607538.9817227355 0  252546.8895354472 599881.3279113505 0  258289.0983523553 600397.640191779 0  247518.7952199645 583037.3718217331 0  263140.3959879661 582529.2228421422 0  262894.8586894067 585442.3590432997 0  256968.6320599076 593040.7691844478 0  243573.0187527719 600218.2795730785 0  258888.5766127351 595139.7745218446 0  262588.7569809347 576734.8569237856 0  259318.4257992262 580601.2540325444 0  249963.3812725965 607065.7205847671 0  257494.5307999607 583482.5893534871 0  258906.4757205145 572278.8089438241 0  237751.446593475 587300.5805003279 0  255142.4708720699 604956.7580261135 0  258485.4978753244 597756.9250383095 0  255516.7820591553 587791.39641967 0  239758.4692108706 601926.8203218657 0  255873.0092222999 577739.5085867504
[...]
<PointData  Scalars="f_32-1"> 
<DataArray  type="Float64"  Name="f_32-1"  format="ascii">4.1207735235377484e+01  4.2541263327285023e+01  4.4601935963019898e+01  4.6470956133739264e+01  4.7827625674726455e+01  4.9877640485555013e+01  5.0553223147427452e+01  5.0926221325211628e+01  5.1006828513078410e+01  5.1848265839456218e+01  5.2432245222699855e+01  5.2156619420783841e+01  5.2187277036232892e+01  5.4571015780466794e+01  5.5954613343638407e+01  5.7119990547370037e+01  5.8563060799090131e+01  5.9980890771519050e+01  5.9854327372595407e+01  6.0374829110490694e+01  6.2684781496825430e+01  6.4446357224510351e+01  6.6381627062886466e+01  6.7390286150763700e+01  6.7949965507227247e+01  6.9318506623912882e+01  6.9711387296281742e+01  7.0499780793803680e+01  7.1927753545129775e+01  7.2748338432335927e+01  7.2918190493274878e+01  7.3308275069141004e+01  7.4346546199003186e+01  7.5237764395400575e+01  7.5409499187755486e+01  7.6329028436149699e+01  7.7616850255235846e+01  7.8989179826658457e+01  7.9988818000518080e+01  8.0795816698828816e+01  8.2010682902085364e+01  8.3152574180426626e+01  8.4163733999189432e+01  8.5040850098304261e+01  8.5815035875479708e+01  8.5975829932142148e+01  8.6384809120643993e+01  8.6920988583215205e+01  8.7360238390941220e+01  8.7571792503985776e+01  8.7620813427233827e+01  8.7666610208612653e+01  8.7641363306098228e+01  8.7723801664411809e+01  8.7961279673077627e+01  8.7941942489232360e+01  8.7944423225836474e+01  8.8045924439485148e+01  8.7782444068955158e+01  8.7019623066726865e+01  8.6189790625605838e+01  8.5507602624294265e+01  8.4432465011433877e+01  8.2685731150959157e+01  8.2469303742708036e+01  8.4648784265816346e+01  8.5210888132664650e+01  8.5338195386477523e+01  8.5496820662760413e+01  8.5718254592272544e+01  8.6006974935711611e+01  8.7073413065170584e+01  8.7501720941854984e+01  8.7776086196169913e+01  8.7842106490971005e+01  8.7535093295021142e+01  8.6898699367855826e+01  8.6293359192505392e+01  8.5681811058981893e+01  8.6096163887855752e+01  8.6419350297244094e+01  8.6847832723628343e+01  8.6963133542707851e+01  8.6961352082679099e+01  8.7013343445480018e+01  8.6991200975043810e+01  8.6709750194295850e+01  8.5814920151569709e+01  8.4322291405141925e+01  8.4167649124916025e+01  8.5672483070415439e+01  8.6324694493176167e+01  8.6518231032649979e+01  8.6376399917849412e+01  8.6475435673984819e+01  8.6321395311537117e+01  8.6317173482072107e+01  8.6123865611936807e+01  8.6043557353123546e+01  8.5748237729224968e+01  8.3453381773213707e+01  8.1017028952621317e+01  7.7852578782532248e+01  7.4815426481721133e+01  7.1901922096818595e+01  6.9562177791866404e+01  6.7804793516337938e+01  6.6272150662400833e+01  6.4605786054590226e+01  6.3123724466577634e+01  6.1242232779574344e+01  6.0539795542116252e+01  6.0910031936970356e+01  6.3891731033805996e+01  6.6149686123643576e+01  6.7043375865140803e+01  6.7974374802246061e+01  6.9649461227734719e+01  7.2045147202330327e+01  7.5053449801585671e+01  7.5972429177366124e+01  7.5982953365275918e+01  7.4611967561056233e+01  7.2101059314615114e+01  7.1681946417730359e+01  7.3917212502607569e+01  7.5471571909368109e+01  7.6022317155563570e+01  7.6029256885595572e+01  7.4344296159785188e+01  6.9476056787729831e+01  6.8759214107551216e+01  6.7716559665018721e+01  6.7154124621718907e+01  6.6240936253730709e+01  6.5072023224950243e+01  6.3684267017131013e+01  6.2367670434097647e+01  6.1161563278443943e+01  6.0637276272745183e+01  6.0334469312898264e+01  6.0191645383445135e+01  5.9788636454429600e+01  5.9672210911879574e+01  5.9686102873203104e+01  6.0191496882800557e+01  6.0888298484213536e+01  6.1006453055857037e+01  5.9862416238889899e+01  5.8616715918485113e+01  5.7426512236604808e+01  5.6692834571486479e+01  5.6371398569165997e+01  5.4850212175929983e+01  5.3445743492648646e+01  5.2156253273163834e+01  5.1760382001220869e+01  5.0585932845211431e+01  4.9109881522448575e+01  4.9318319873662489e+01  4.8671983559621260e+01  4.7822002393964588e+01  4.5928967330365353e+01  4.3733953682574374e+01  4.2349993439525790e+01  4.0771876568276419e+01  3.9444132296681296e+01  3.8154290849268016e+01  3.7423906954825426e+01  3.6960589159633749e+01  3.5918742060199627e+01  3.5284810523884722e+01  3.5209080311931849e+01  3.5093211511297184e+01  3.4527724768882855e+01  3.4034158795043204e+01  3.2927184272319060e+01  3.2045223990609166e+01  3.2788767591679026e+01  3.1100283165395279e+01  3.1126391794607148e+01  3.3021056301055104e+01  3.3071144125601506e+01  3.3272107689728585e+01  3.2861990181696875e+01  3.2330435152369716e+01  3.1905062451503181e+01  3.2014649172650110e+01  3.2567609054842556e+01  3.3341824304051904e+01  3.4125990778269674e+01  3.4949207502450818e+01  3.6006373359191329e+01  3.6428281781964088e+01  3.6919741306772579e+01  3.8273420971532978e+01  4.0279314797835653e+01  4.1203886872950534e+01  4.0725078542406884e+01  4.0653039723946137e+01  5.2360611985032186e+01  6.0111957250368000e+01  8.5020011839542477e+01  8.7461774519650987e+01  8.7930511384337152e+01  8.5099522284505980e+01  8.7750688940038813e+01  4.9100286674693656e+01  8.4932287665286992e+01  8.6481370758713197e+01  7.3351458691089022e+01  7.2528133964585180e+01  5.9864784858070664e+01  5.9696276718929091e+01  8.6610787399183266e+01  5.2360885161425109e+01  5.2190283950280694e+01  8.4739305712059959e+01  8.5281647408450468e+01  4.9099457124927007e+01  8.4010418792200142e+01  8.6481420211001662e+01  8.5365769579746484e+01  8.4590180413503319e+01  8.6442657616976902e+01  8.4665811994009673e+01  8.6442143026444299e+01  4.9319552285997815e+01  6.6893900581448293e+01  7.5745988377304570e+01  5.1723532185369841e+01  3.6643826543615297e+01  5.3540687279615554e+01  7.5016375701095342e+01  6.1440254728936907e+01  6.4316866053801320e+01  4.2003124641177976e+01  4.3330557244806471e+01  7.5544532063033571e+01  4.6515147259481026e+01  8.1917937140862705e+01  6.7685863005832957e+01  5.4923721901561429e+01  5.6549634355666043e+01  6.9045066544468213e+01  3.3680917941643585e+01  7.7885785380221179e+01  6.1652069795120987e+01  7.0947595257389821e+01  5.2179527142170329e+01  3.6888193517586160e+01  4.7379571576239890e+01  4.5207651059081194e+01  5.7601759138112058e+01  4.2980578387775871e+01  8.1101770848423953e+01  3.6627681833337192e+01  7.5584180742299566e+01  6.5102298332766068e+01  6.9901259091164732e+01  5.0595431949185262e+01  7.2496708638321579e+01  6.0809902123490879e+01  6.8004313758488024e+01  6.4797705436156562e+01  5.5709396609641374e+01  3.8677941276268776e+01  5.9755817693147243e+01  7.9704128420851859e+01  7.4474948363019166e+01  8.5411344513864591e+01  7.1254678931407256e+01  6.9481014011049652e+01  5.6243591410863694e+01  3.9494591668601991e+01  4.1554032895016533e+01  5.9548624426710113e+01  7.8974384143397160e+01  6.0863170206143174e+01  3.5118736027426955e+01  3.9169750205758497e+01  8.1083988461394696e+01  4.5205096313446226e+01  3.2002520317776487e+01  6.7642102964780392e+01  7.5752022867282477e+01  6.5202938718072147e+01  5.0271036498660514e+01  8.5202452004720115e+01  3.8636422104984000e+01  5.0792503726606121e+01  5.9913085059971742e+01  6.5449530407946710e+01  5.6383355849673386e+01  4.7073152979034170e+01  4.3627699198769555e+01  5.6719273303310501e+01  4.8036469152458054e+01  4.7829911717852681e+01  4.4531709291264029e+01  4.9565255719657308e+01  8.4467591976150118e+01  7.8410655641713134e+01  5.2973849710182314e+01  8.3051893002111655e+01  7.5716281685471557e+01  7.4073919046920537e+01  8.0418356303906705e+01  6.2541094502822602e+01  5.9041753261442167e+01  6.6470132472020893e+01  7.2297541496697292e+01  5.8017012448943063e+01  7.8224855285942240e+01  5.1149044552554471e+01  6.5541688342580272e+01  3.2494668620102047e+01  4.9590043234351299e+01  6.9010181336359281e+01  7.7332128847326487e+01  6.4345219288331165e+01  7.0882585671138912e+01  6.2525188887844983e+01  7.1441941847875498e+01  3.5802557781717645e+01  5.3514931120482025e+01  5.3277744025780230e+01  7.9692997807246655e+01  6.7615908033277606e+01  3.7511089448415333e+01  7.9247445320838565e+01  6.3618504336425040e+01  8.4279927753227923e+01  3.3350291574818826e+01  8.4700637087675830e+01  8.4632908799895574e+01  5.5284768798484755e+01  5.0919493239514182e+01  8.4704835752307389e+01  8.5714158598363426e+01  8.2870291597577165e+01  8.5113294869021573e+01  7.1442991643057525e+01  3.6074935826306920e+01  8.0738588935625870e+01  7.5740736400474816e+01  5.6154113547466793e+01  5.0496902222031018e+01  4.7166011432395848e+01  8.5427813254181316e+01  8.4629379298028113e+01  5.8343659414785087e+01  8.5815296225310604e+01  8.3647022680540772e+01  8.4144309859479790e+01  8.5879315814729750e+01  5.9785476328301741e+01  4.8956796331621483e+01  7.1052470460096941e+01  3.4131255094432525e+01  4.8976528466862199e+01  3.6737128523524262e+01  6.9081321270391143e+01  8.7219713760441053e+01  6.6643008264717309e+01  7.2759404923332028e+01  8.3365687637897054e+01  6.0024463756960721e+01  3.0876634182252936e+01  7.1978111527003449e+01  3.9484389955123291e+01  5.2262311726552198e+01  8.4862153727864253e+01  8.2879377662407094e+01  6.1938678989477935e+01  8.7226191372885523e+01  4.3921498473633243e+01  8.5411968076759223e+01  6.3797605606563998e+01  3.2470723163967570e+01  3.6239472438545512e+01  3.7298319674432307e+01  7.2509898583780981e+01  8.1760444943444270e+01  8.1043988756545772e+01  6.8596764135711737e+01  8.5159145898540743e+01  5.9895066129108741e+01  4.8921452646993096e+01  4.8912703616301989e+01  3.2349848383427535e+01  8.4703326702613282e+01  8.4881884735454648e+01  8.4952814455740508e+01  7.5471540010864061e+01  8.1489183779159134e+01  8.5048486002400992e+01  8.3483353798437022e+01  6.6846544574179092e+01  8.7873965326174613e+01  8.7814947842793742e+01  6.1093546101135132e+01  3.5087857588533979e+01  6.0863412406992047e+01  8.1988787966995133e+01  5.5900309208609301e+01  6.4582829090874768e+01  8.7438680669196145e+01  6.1730505110018967e+01  7.3336100149173987e+01  4.0872761438759660e+01  5.6422791774081148e+01  5.5644891794128768e+01  5.7031763081324769e+01  8.5874652064536974e+01  5.0331549410820870e+01  5.1241733255796838e+01  4.9338513163059559e+01  5.1111539297724896e+01  4.7336322536501470e+01  3.2862137015814852e+01  3.1179536883110018e+01  5.2217636770069930e+01  5.4994717525492867e+01  7.5678914289275866e+01  7.5588087519443633e+01  8.7658814514593303e+01  6.6936384099651505e+01  6.4930514064026895e+01  6.0796660205407960e+01  6.0271419952710609e+01  6.0411855488181402e+01  6.0590945772304515e+01  6.0297616798390088e+01  6.0296608795618788e+01  6.2245110645174101e+01  6.0419433921259795e+01  6.1006286684372476e+01  6.4022309737645742e+01  6.2365496481979633e+01  5.8613109356665404e+01  6.0120831302356137e+01  4.4731678412802758e+01  4.6490018398905207e+01  4.4646284413545558e+01  4.3040642619449422e+01  4.3619217140697963e+01  4.1608818482976552e+01  4.2923730165589213e+01  4.2237973836666171e+01  3.8896024757767350e+01  3.7698556664435522e+01  3.4003374649241955e+01  3.4517837177779576e+01  3.4470139821240231e+01  3.5483352415314023e+01  3.4920420286442813e+01  3.6235745338976933e+01  3.6310045856845697e+01  3.5494529766686355e+01  3.6673423233214358e+01  3.6478472092351574e+01  3.7202416276702273e+01  3.6666793877219042e+01  3.7880694716819825e+01  4.0412018736511442e+01  3.8875113379439526e+01  4.7637890494618610e+01  4.6519807878469415e+01  4.7044725038008501e+01  5.0450685395120537e+01  6.8232283144541597e+01  6.7352062853796099e+01  6.6324728179658948e+01  6.7837140429090425e+01  7.3846786735592957e+01  7.7118491915696325e+01  7.5005882651295323e+01  7.6873517264460332e+01  5.4315694991651881e+01  4.9986049478897158e+01  5.0480671752513238e+01  5.2521640930453998e+01  3.7069767490193733e+01  3.8719625513800104e+01  3.6779495417511107e+01  3.7615407881282223e+01  3.7051571133546936e+01  3.6454187079692062e+01  5.4894376975999727e+01  5.6784838125994874e+01  5.1689023824125570e+01  5.4726358786004305e+01  5.1466861858396143e+01  7.5405124160854911e+01  7.2651125971166962e+01  6.0790103423037202e+01  6.0549022061495705e+01  6.2968110376334671e+01  5.9822722287725909e+01  6.2874690187572348e+01  6.1733678268858895e+01  6.3235022645572073e+01  6.6278095573953721e+01  6.5053377353608369e+01  3.8599407532452268e+01  4.0053419876677637e+01  4.1739698652645558e+01  4.0724230445144954e+01  4.3656988142360085e+01  4.3087602599733856e+01  4.7409732507238679e+01  4.0353351508372121e+01  4.0858404942633697e+01  4.5348494470856672e+01  4.5776796325976612e+01  7.3135401953111483e+01  7.7461604064094743e+01  7.4469830146348301e+01  7.8165361575104882e+01  8.0904995870875268e+01  7.0297898296065597e+01  6.5976377755307311e+01  6.9173834571697398e+01  6.7536359614604081e+01  5.2309185542891299e+01  5.5820498594236106e+01  5.6434746638810928e+01  5.2423462422373014e+01  7.1980170752099312e+01  6.9405013335168988e+01  6.9414456537819149e+01  6.7100967314839508e+01  3.5053447959080898e+01  3.4117874791865361e+01  6.1562228513632334e+01  6.0527996972659672e+01  5.9388489749606748e+01  7.1481019716307998e+01  6.9329530633035901e+01  7.2795620735459721e+01  6.9485098886829775e+01  5.4197227855868555e+01  5.0294911581671215e+01  5.0746910852711615e+01  5.2416912461596063e+01  5.0804527409428637e+01  5.2506513447321780e+01  3.7555429367104175e+01  3.6514882751339236e+01  3.7641657834132893e+01  3.6576665287789133e+01  3.7036352194523914e+01  3.6975126558553661e+01  4.6246247086203560e+01  4.8569218824930758e+01  4.8224033017780428e+01  4.8596023072161060e+01  4.1076045035786706e+01  4.6467635574982175e+01  4.6451972367388088e+01  4.7638565609957880e+01  4.1852768937515378e+01  4.4458080260892686e+01  5.7330426030633305e+01  5.8915995103861107e+01  5.6719176494032645e+01  5.6089453098351889e+01  4.0868141233814477e+01  4.4381256811473598e+01  4.0254804692722821e+01  4.5050348324194651e+01  3.7706765891871733e+01  3.4772029867507165e+01  3.7631547619285683e+01  3.6221328116898370e+01  3.6344984057867556e+01  3.5487947330890876e+01  3.7039342860493427e+01  6.4563581968408741e+01  6.3716052224494710e+01  6.6334729399158192e+01  6.6129701014987660e+01  7.0421994000199930e+01  4.8893061066722254e+01  4.9386531087108679e+01  7.0705824482901093e+01  6.3055959915014022e+01  5.9674181288049859e+01  5.9027742558229981e+01  6.2238129481751528e+01  6.9331937556170033e+01  6.7293833949614253e+01  6.3586530770229594e+01  6.3322943724425180e+01  5.7532407350384027e+01  5.2716705947316257e+01  3.9079051000255646e+01  3.8761596671235466e+01  3.7873076140418007e+01  5.9189109722003550e+01  6.1088254265706126e+01  7.6555560552207083e+01  7.8859024572976551e+01  7.2809178245764073e+01  7.6478836532880365e+01  7.3156845216418773e+01  7.3345731713547806e+01  6.8107516774536222e+01  6.7491275152374357e+01  5.5647080527843478e+01  3.8415108247726387e+01  5.7996166130889641e+01  5.8904361067621210e+01  3.5277806791364092e+01  3.6250993735535737e+01  3.5180860786019807e+01  4.2456971932091363e+01  4.4929777196594401e+01  5.3195686728868353e+01  4.9639366468025962e+01  5.0288460632576282e+01  5.0485104020231866e+01  5.9635788302458970e+01  5.9880799989980382e+01  6.0501179957615946e+01  6.0569643487650907e+01  6.4887674462217760e+01  6.4411349443132977e+01  5.4798422333172340e+01  5.0143334185782336e+01  4.8743024141228119e+01  5.0746135006181561e+01  4.8730518240803598e+01  4.5759454670558185e+01  4.7030495254397174e+01  5.5616592900019285e+01  5.2343366509957875e+01  7.6058604412580138e+01  5.4458067871716686e+01  5.1266650493077776e+01  6.3119311387667786e+01  6.5909475286593462e+01  6.9060765336910947e+01  6.7227133189405535e+01  3.7122649657611184e+01  3.4117105484638103e+01  3.6795360468411204e+01  5.9907331477713072e+01  3.6077246536975757e+01  6.0564384935231665e+01  4.1768841608344808e+01  3.8132259785548342e+01  6.1375297772473878e+01  4.8950168329348045e+01  6.8047304877209896e+01  3.6877632437407897e+01  3.7259090185124165e+01  3.6575072770202439e+01  3.6737631982731948e+01  3.6521796616362245e+01  6.2305421655641595e+01  4.3425017580615425e+01  4.5467704430440456e+01  4.4544010511058019e+01  7.5850035854867002e+01  5.8584602421934520e+01  5.3604775108957277e+01  5.3546410663992987e+01  5.4404541475870353e+01  3.4942606805805262e+01  6.9383731724907847e+01  6.9971912416732437e+01  3.7371140719812040e+01  3.7046118630058750e+01  4.7309129817097215e+01  4.7841591323899735e+01  4.3020805283654731e+01  5.6942104599826656e+01  6.0569815930791748e+01  6.1854692523652844e+01  5.9683996484323856e+01  6.2541012940802169e+01  3.9613312578298547e+01  3.8147327985283361e+01  3.8635340360767565e+01  3.8276337083617463e+01  6.9617467152740005e+01  3.8353980725003410e+01  3.9959388461112688e+01  4.0793117795304383e+01  5.0881107796030555e+01  5.1194988100585896e+01  5.1570607899184409e+01  4.9820550554630159e+01  3.9735549610941710e+01  3.7957585159076395e+01  3.8941002964761047e+01  4.9654427969095856e+01  7.3505225004513434e+01  7.4153781799744266e+01  7.5132891597083955e+01  6.2238661313454855e+01  6.7062203631064051e+01  5.2674960331494333e+01  5.0008686635712778e+01  4.9171101833485956e+01  5.0477066667316073e+01  6.5062594287753171e+01  6.2008819363379061e+01  6.2739037496102434e+01  3.6492955577346585e+01  3.6231276390079415e+01  3.5994242657802268e+01  5.2797463900522935e+01  5.4838470994911241e+01  5.4571706594942441e+01  5.2205460344467966e+01  6.6780172982798760e+01  3.6195853707397269e+01  3.6557962632740363e+01  3.6451789755779188e+01  6.0392934801198926e+01  6.0150416792042634e+01  6.0212675878193622e+01  4.2956980361281452e+01  4.4164048153719506e+01  4.4797296306800035e+01  3.7431947493644607e+01  3.5300299686382658e+01  3.5696322790078710e+01  6.1264204412436570e+01  6.2730328175244694e+01  6.1890313054401105e+01  6.1085830012945536e+01  6.1089581566961009e+01  6.1512243919839960e+01  6.0743285067727065e+01  4.5111595355411332e+01  3.5780681551699786e+01  4.8128125020862967e+01  6.8765651840362054e+01  5.1425686277275098e+01  5.0868470483524860e+01  3.6715587450040424e+01  3.7626264099293920e+01  3.7778512046766579e+01  3.8963077187604284e+01  3.8274536147746105e+01  3.7266873955072221e+01  5.1501792995862189e+01  5.0544278285684555e+01  5.0513976912079393e+01  6.1686807910183518e+01  6.2410071165885583e+01  3.7859474969294737e+01  3.8645777246828551e+01  4.1652410767647282e+01  4.2103826504114522e+01  4.6666426095939769e+01  4.0418664220975579e+01  4.0521607326214195e+01  3.9796202558353784e+01  4.7742098700786684e+01  7.5389193362907193e+01  5.2688670699186332e+01  5.4498433465365913e+01  5.3389514670242399e+01  6.7937855455075564e+01  6.8588319804875425e+01  6.7319130424607295e+01  5.1519593679951122e+01  5.3538449229933541e+01  5.1736908832495423e+01  4.5083414163574389e+01  5.5928045160686096e+01  5.5289324089106323e+01  3.8369605279363739e+01  3.7760730076618763e+01  6.5447583997643392e+01  6.5184423907040525e+01  6.6112971282815010e+01  3.8244346441641710e+01  3.6186578473955528e+01  </DataArray> 
</PointData> 
</Piece>
</UnstructuredGrid>
</VTKFile>