<?xml version="1.0"?>
<VTKFile type="UnstructuredGrid"  version="0.1"  >
<UnstructuredGrid>
<Piece  NumberOfPoints="784" NumberOfCells="1320">
<Points>
<DataArray  type="Float64"  NumberOfComponents="3"  format="ascii">266913.131276 586512.314988 0  266738.13716 587762.325998 0  266363.132677 589012.328643 0  266175.641078 590169.601714 0  265666.575631 591040.7699119999 0  264875.64001 591687.766419 0  264900.636161 591845.049083 0  266088.14152 592012.3229499999 0  265561.959259 592661.17101 0  264288.136855 593037.368683 0  263865.194033 593999.8486949999 0  263850.641856 593236.729596 0  263625.634872 592756.525286 0  262689.574249 593299.848918 0  262475.636737 594003.0907310001 0  261934.554452 594340.929792 0  261725.631329 594932.094409 0  261729.256443 595728.498809 0  262138.136044 595012.330523 0  262288.141035 596262.333669 0  261488.994028 597511.480605 0  261234.15567 598316.338928 0  260815.635063 599014.863821 0  261400.643658 599389.7367680001 0  261322.963374 600022.185065 0  261119.455248 600931.061306 0  261607.436504 601293.0629359999 0  260807.446929 602089.899812 0  260025.642878 602988.868697 0  259613.135827 603937.3854499999 0  259050.643123 604100.987861 0  258411.880065 603988.6335979999 0  257764.357469 604449.872569 0  257971.239668 605320.429125 0  258041.396867 605740.635381 0  257188.143339 606987.394312 0  256038.141198 608112.3554550001 0  254788.141633 609087.4026939999 0  253588.140656 609812.362881 0  252338.135706 609737.4048949999 0  251088.138116 609787.404055 0  249963.12851 610287.399466 0  248613.130524 610462.365857 0  247363.132198 610687.407659 0  246113.130532 610837.411551 0  245832.347438 610918.209918 0  245016.946433 610958.5639439999 0  244313.129646 610762.372259 0  244400.622144 611378.093316 0  243939.669208 612460.8930899999 0  242960.649733 611984.892792 0  242170.381438 611919.647351 0  241888.122919 611112.375656 0  241393.380757 610467.6456149999 0  240594.157528 611306.369822 0  240525.621947 610804.648112 0  240363.123632 610512.3745050001 0  239113.123247 610262.374278 0  239813.12126 609037.412459 0  240588.122952 607812.368199 0  241013.119545 606625.9534560001 0  241454.373249 605724.888025 0  242238.120107 604687.3993 0  243088.121248 603462.362766 0  242860.319451 603007.3932640001 0  241563.116617 603812.361344 0  241778.400913 604327.642217 0  242059.837234 604824.879102 0  241475.620201 604923.2402390001 0  241462.182234 605449.881372 0  240906.219606 605674.888222 0  240241.856192 606891.125066 0  239891.734044 607841.012479 0  239048.653431 608724.889805 0  238118.054545 608974.895967 0  238888.111029 607337.406468 0  239738.119992 606212.362729 0  240288.12044 605687.4075229999 0  240380.212307 604729.521696 0  239347.309632 604603.204501 0  238888.112036 604387.408787 0  237913.11173 604687.401386 0  236784.172023 604499.882783 0  236883.408793 603717.08334 0  236154.933927 603595.565605 0  235688.103943 602912.369264 0  235763.108033 601662.366516 0  236363.110805 600412.35884 0  236738.107995 599162.356577 0  236525.607944 598482.2412899999 0  236138.109208 599362.357613 0  235725.063048 600325.4466510001 0  235091.948926 601408.5220979999 0  235188.10921 600312.366344 0  234375.602405 600833.9674270001 0  234663.109308 599912.358011 0  234138.105122 600062.365644 0  233955.307245 599029.561063 0  233338.103791 598387.401556 0  233988.09795 597862.356384 0  235138.101489 596637.3947750001 0  235563.1039 595387.392428 0  236513.103639 594212.356312 0  237163.10684 592987.3929869999 0  238313.103031 591862.3515540001 0  239513.107028 590812.3512640001 0  240638.102135 589787.387271 0  241463.109549 588587.378486 0  242294.489816 587443.735215 0  242913.101099 586512.341804 0  243544.066915 585474.859604 0  243040.448415 585184.975583 0  242438.10214 585337.38015 0  241313.102353 586562.339499 0  240538.107104 587787.382449 0  240114.641085 588588.939407 0  239388.100256 589437.382238 0  238188.104456 590512.346358 0  236938.100507 591362.349798 0  235813.10453 592537.396388 0  234864.502938 593178.7753880001 0  234463.097651 592862.357267 0  235113.0965 591662.3545979999 0  235713.101522 590412.346099 0  235777.688431 589976.7582779999 0  234943.583145 590706.265132 0  234462.482256 591490.2841159999 0  233801.497784 592112.940187 0  233388.099101 591787.394208 0  234013.093099 590437.393065 0  234776.217248 587148.7548100001 0  235163.093726 586562.3486189999 0  235313.098918 585483.229012 0  235250.59732 584662.298153 0  235588.093896 583337.379493 0  236329.432041 582199.858992 0  237188.096234 581462.3349939999 0  237463.088521 580212.335511 0  238350.592558 579057.652616 0  238591.415797 578574.847681 0  238313.094106 577612.328905 0  239229.696732 577695.769664 0  240195.161018 577513.008613 0  240614.996733 577149.8518770001 0  240663.091715 577412.332622 0  240288.092486 578662.334085 0  239942.357258 579508.095811 0  240438.100019 580212.3334220001 0  241338.095553 580387.375355 0  241238.099828 579137.369157 0  241788.097003 577887.370889 0  241983.554649 577241.9220939999 0  242054.178239 576927.8105029999 0  242588.100699 575737.366175 0  243149.324833 574898.583978 0  243695.278626 573919.517981 0  244268.494418 573724.8454239999 0  244995.134063 573930.2767810001 0  245417.314363 573391.601898 0  243450.599125 571859.479773 0  245776.797908 572599.8353060001 0  246779.639852 572973.285167 0  248034.741935 573186.082054 0  249413.10651 573162.3205520001 0  250496.922226 573271.1521899999 0  251613.105126 573237.3551319999 0  252421.824577 572846.032906 0  253256.245022 572580.4733130001 0  253739.471933 571960.9547369999 0  254174.511864 572149.8346569999 0  254484.944333 571684.194807 0  254384.108649 570891.346712 0  254344.002752 570218.26407 0  255025.609604 570829.0294979999 0  255715.005913 570489.264586 0  256218.846343 570774.828355 0  256834.349083 570508.5908 0  257390.092515 570014.308325 0  257624.431042 568493.478911 0  259355.811717 569380.021819 0  260033.372814 569617.066669 0  262679.741751 570320.699974 0  263289.115756 569524.817815 0  263463.114338 570512.301061 0  264638.198419 570687.3443539999 0  265058.220065 571334.378467 0  265447.561421 572077.90485 0  265488.125257 573137.3446020001 0  265131.937715 573963.293593 0  265432.389648 575093.068786 0  265638.122314 576338.029955 0  265750.630817 577371.8281319999 0  265738.570663 578561.9098850001 0  265875.630866 579139.630549 0  266213.129247 579862.311842 0  266563.130472 581112.314509 0  266238.135356 582362.310259 0  265938.12863 583612.320897 0  265738.131342 584762.3210189999 0  266875.638633 585365.358768 0  264018.7239399826 593650.4646671159 0  262236.3944351029 595831.1252656333 0  241846.246678 605206.1436625 0  240200.622106 608424.8903290001 0  240943.4862974102 610939.7757535663 0  236550.6094 599787.3577085 0  238528.1212051503 608102.9081793013 0  244413.4891967989 572609.5960859474 0  236382.0474488751 598808.3067022427 0  235369.601910944 600933.5380148316 0  235413.099011 591037.3503485 0  235446.2251831186 590266.6553871984 0  240475.5921005 578037.3333535 0  240413.173949154 577324.4280286073 0  240574.037899 606283.0066440001 0  263857.9179445 593618.2891454998 0  264153.4303974913 593343.916675058 0  242042.1833925 604946.7714812499 0  241650.3099635 605465.51584375 0  244613.6985165 572229.6575395 0  236631.8579695 598822.2989335 0  235140.029068 600860.444221 0  241767.7287175 604874.0596705 0  242140.15174975 604817.0853906251 0  234781.8558075 600573.1668855001 0  242091.167571125 604881.9284359375 0  234519.3558565 600373.162719 0  254604.8337712102 583989.0014118921 0  250699.5846056537 594617.3297041012 0  250540.4796469513 602258.2940568649 0  248483.7490186612 580334.7345534252 0  258549.2190328319 577893.951823392 0  257067.0067473103 590016.5327808241 0  243285.0921999099 596333.923437875 0  248333.1386145258 589098.0389905117 0  256142.8445072741 595883.3911551933 0  260245.1368072523 583315.2785712298 0  253472.3380211276 578932.2908163272 0  246432.3347504817 599884.5019511909 0  261555.9240922556 588041.186709004 0  247293.1100123104 605823.8307887657 0  246458.2798550911 593168.8646574575 0  252840.0183145193 588226.5564648228 0  249828.2874404451 584740.7888937403 0  255409.5660975206 600458.8956828594 0  260819.9733392385 574219.403683011 0  252584.2262054711 605722.6603825617 0  254049.8830611471 592547.4852571967 0  250015.4356193061 598425.2225922942 0  245872.072249477 577604.9761853142 0  262002.1583249522 579753.4663046852 0  257732.6630933878 586227.970805314 0  250242.5556457866 577017.3316409125 0  244921.6453001869 581816.6358421432 0  256520.3890639471 580904.824006648 0  240779.0970645865 599524.6679555867 0  257100.1829219198 574459.5922545703 0  239912.2630002034 595231.1172704464 0  244703.0875078634 590068.6945953515 0  242549.5490268674 592874.3693043783 0  251586.0465921376 581796.2215047925 0  246643.189997516 596527.447801719 0  251049.7658069622 591057.6752245198 0  253014.5731561695 596998.6601086652 0  238680.2197353724 584542.2309791476 0  259715.365803504 591937.1938619445 0  254097.157218761 575731.4494927844 0  246806.6408589328 586139.0877599345 0  246136.1179750556 602959.471719323 0  253520.7033332401 602835.180253843 0  244125.4295793909 607538.9817227355 0  252546.8895354472 599881.3279113505 0  258289.0983523553 600397.640191779 0  247518.7952199645 583037.3718217331 0  263140.3959879661 582529.2228421422 0  262894.8586894067 585442.3590432997 0  256968.6320599076 593040.7691844478 0  243573.0187527719 600218.2795730785 0  258888.5766127351 595139.7745218446 0  262588.7569809347 576734.8569237856 0  259318.4257992262 580601.2540325444 0  249963.3812725965 607065.7205847671 0  257494.5307999607 583482.5893534871 0  258906.4757205145 572278.8089438241 0  237751.446593475 587300.5805003279 0  255142.4708720699 604956.7580261135 0  258485.4978753244 597756.9250383095 0  255516.7820591553 587791.39641967 0  239758.4692108706 601926.8203218657 0  255873.0092222999 577739.5085867504
[...]
<PointData  Scalars="f_32-1"> 
<DataArray  type="Float64"  Name="f_32-1"  format="ascii">4.2058958628366078e+01  4.3320699433100351e+01  4.5320043870215329e+01  4.7041465280532066e+01  4.8369171380338152e+01  5.0440331888572786e+01  5.1064988100062379e+01  5.1515525667692962e+01  5.1529436551692022e+01  5.2049795922799419e+01  5.2341129345086230e+01  5.2254666461798415e+01  5.2626592044266275e+01  5.5356497712819490e+01  5.6810788780804472e+01  5.8134870870677751e+01  5.9684230976362862e+01  6.1133740068350214e+01  6.1113412649543257e+01  6.1508688964384170e+01  6.3629567938750625e+01  6.5361629025105032e+01  6.7294850487476936e+01  6.8319460048707242e+01  6.8841136006413223e+01  7.0075446259955044e+01  7.0436277912129114e+01  7.1103544745317436e+01  7.2369866590709492e+01  7.3154985177223182e+01  7.3355458697664474e+01  7.3860996381257294e+01  7.5092891184533542e+01  7.6068348960167214e+01  7.6248465022297310e+01  7.7161547808173296e+01  7.8391196975809365e+01  7.9667916282223615e+01  8.0579335481052652e+01  8.1386196517262192e+01  8.2589609729859262e+01  8.3717639193732637e+01  8.4742961491406817e+01  8.5650415644683363e+01  8.6464054898637627e+01  8.6636266995999350e+01  8.7076962769132720e+01  8.7634318426492115e+01  8.8060823610138257e+01  8.8253810453966054e+01  8.8291699617816562e+01  8.8328745436043590e+01  8.8318274494347904e+01  8.8401160812201084e+01  8.8591619680631155e+01  8.8577197496605777e+01  8.8580028654136527e+01  8.8656582189522140e+01  8.8451020830244872e+01  8.7767763617314657e+01  8.6962228904673523e+01  8.6286922021391007e+01  8.5190793326848691e+01  8.3422670004483777e+01  8.3256826434551272e+01  8.5499567309789157e+01  8.6095881531078916e+01  8.6236085636490259e+01  8.6387287194732480e+01  8.6605198985540014e+01  8.6888645915041778e+01  8.7918311088199815e+01  8.8287741263382060e+01  8.8483823137660892e+01  8.8526064352403935e+01  8.8311674834794943e+01  8.7757705009308708e+01  8.7170287922323951e+01  8.6514115298965564e+01  8.6800734660001694e+01  8.7076753516819622e+01  8.7494700646872474e+01  8.7630261628867046e+01  8.7615212804058444e+01  8.7653643040173435e+01  8.7616979636875300e+01  8.7314880565045158e+01  8.6391246532056485e+01  8.4928024842266780e+01  8.4729633756965612e+01  8.6163758596753084e+01  8.6795832636578552e+01  8.6994280290673231e+01  8.6837248140609546e+01  8.6916518486050876e+01  8.6753901569249436e+01  8.6730119030329874e+01  8.6511184271415758e+01  8.6409419017453331e+01  8.6128938652551042e+01  8.3906120797467935e+01  8.1571906821976270e+01  7.8635331458643037e+01  7.5860309328592848e+01  7.3191605273273680e+01  7.0819631230125552e+01  6.8824246222128124e+01  6.6993697881254946e+01  6.5110774220850729e+01  6.3507290240690907e+01  6.1554954483366927e+01  6.0576237797190672e+01  6.0816262680641969e+01  6.4105651930344962e+01  6.6761706327737912e+01  6.7828512482086808e+01  6.8889316353805583e+01  7.0642596572988737e+01  7.2800389383595444e+01  7.5038390851271799e+01  7.5633182527871256e+01  7.5639298730585281e+01  7.4737379287029455e+01  7.2836485380300957e+01  7.2437807770980243e+01  7.4176754229023132e+01  7.5333072727102547e+01  7.5721360048831087e+01  7.5723977761690819e+01  7.4498413871961333e+01  7.0190581106466681e+01  6.9452442828554169e+01  6.8329120962509705e+01  6.7709136654170749e+01  6.6787832509524492e+01  6.5695112594007398e+01  6.4354687542539324e+01  6.3054329251067315e+01  6.1951004249563624e+01  6.1502513177047092e+01  6.1227669012848921e+01  6.1168793428315688e+01  6.0958936643735868e+01  6.0893742102922673e+01  6.0901531548306792e+01  6.1232351787026666e+01  6.1784837677692067e+01  6.1847568610403471e+01  6.0594175377077200e+01  5.9117832614853626e+01  5.7820444706579018e+01  5.7057191407944117e+01  5.6729648996559519e+01  5.5240153846617744e+01  5.3973084900998437e+01  5.2840917895039730e+01  5.2484909958100637e+01  5.1358358681016441e+01  4.9875622857047567e+01  4.9707274284820599e+01  4.9422727133754123e+01  4.8658141757896765e+01  4.6620895461079343e+01  4.4152792837063409e+01  4.2748846282743834e+01  4.1192333578646149e+01  3.9826893394833192e+01  3.8625559909267245e+01  3.7806856968079650e+01  3.7516843068922178e+01  3.6531620718802806e+01  3.5886502764124664e+01  3.5836560190524729e+01  3.5732560655045162e+01  3.5283983747054336e+01  3.4829690404208080e+01  3.3837574932610799e+01  3.2827110653739908e+01  3.2583127840901888e+01  3.1841334422553619e+01  3.1773548732001114e+01  3.3372310996395335e+01  3.3614624977970088e+01  3.3496283814064761e+01  3.3310935072350155e+01  3.3078985123323612e+01  3.2810612925738972e+01  3.2830411776878464e+01  3.3275956727597631e+01  3.4021778868096838e+01  3.4829131619470246e+01  3.5585295306626541e+01  3.6639165111258997e+01  3.7199889291174607e+01  3.7802748051230893e+01  3.9006895774762242e+01  4.0519316676522607e+01  4.1772724818892925e+01  4.1832031561882701e+01  4.1563314741523818e+01  5.2316104395915900e+01  6.1292147864466735e+01  8.5795287104099828e+01  8.8175811575331466e+01  8.8567946259556692e+01  8.5687744148465001e+01  8.8466633661674351e+01  4.9621915564496092e+01  8.5448146251450225e+01  8.6955341020594688e+01  7.3832391434363004e+01  7.3094489317811366e+01  6.1008151370402317e+01  6.0907152815269889e+01  8.7480709333631864e+01  5.2315926544419753e+01  5.2252434747586619e+01  8.5506967752073848e+01  8.6059269140524066e+01  4.9621842194453713e+01  8.4613995386235757e+01  8.6955419712480037e+01  8.6261366749341860e+01  8.5353256826180271e+01  8.6886078106293212e+01  8.5431056617028531e+01  8.6885263349522248e+01  4.8284780884396824e+01  6.6732533355540681e+01  7.6154990555956090e+01  5.0398588123793765e+01  3.1002516725220470e+01  5.0687422822624150e+01  7.5729282442421535e+01  6.0721713862011775e+01  6.4721871027220715e+01  4.2396506565745966e+01  4.0105315511737800e+01  7.5652565083395586e+01  4.7285808366024931e+01  8.2731452464869065e+01  6.7836297397017219e+01  5.2311475963983213e+01  5.7030172185663567e+01  6.8580472640829015e+01  3.3935123079387758e+01  7.8776268524702445e+01  6.1748817270399819e+01  7.0492237044627075e+01  5.2028770103161811e+01  3.4569547439825463e+01  4.4134394420921282e+01  4.4143298057677889e+01  5.7431978237111736e+01  4.3117745383650970e+01  8.1968077811389534e+01  3.6739151339971698e+01  7.6617754006778881e+01  6.4072701028798505e+01  7.0750763980911969e+01  5.1268821161071010e+01  7.2879102448741222e+01  6.0449116735295156e+01  6.7402723471240336e+01  6.5276929484399176e+01  5.6141790081189441e+01  3.6610321743975177e+01  5.9781939884031807e+01  8.0227660820887053e+01  7.5005244668339373e+01  8.6202227353468928e+01  7.0859947709461423e+01  6.9827424844220189e+01  5.6551514495683591e+01  3.9380815877925741e+01  4.2606434777317226e+01  5.9396347842162328e+01  7.9833320085140784e+01  6.1777444572639617e+01  3.5064262401915833e+01  3.8726839648367722e+01  8.1877746292831759e+01  4.4673180664137668e+01  3.3048733299483885e+01  6.8483785567526880e+01  7.6583152273189654e+01  6.5825319873291306e+01  4.4484837221040237e+01  8.5594506359678462e+01  3.5011688870335178e+01  5.1545521909665567e+01  6.0040658559323951e+01  6.5466592590883522e+01  5.6645237646117359e+01  4.7412651608647039e+01  4.4448193798253897e+01  5.4687547660772999e+01  4.7536746882354066e+01  4.7833315034642162e+01  4.5229002336863317e+01  4.8574281325695232e+01  8.5219972003949849e+01  7.9239082558743021e+01  5.3250964682682813e+01  8.3816014853192470e+01  7.6389713000339100e+01  7.3825406888736453e+01  8.1299763248721092e+01  6.3090117766945426e+01  5.9528598363040032e+01  6.5612138627269800e+01  7.2697806252187434e+01  5.7881165340335272e+01  7.8727359840532500e+01  4.7602629016346150e+01  6.5824936524651093e+01  3.3127065271216544e+01  4.8122650784942685e+01  6.9183388200774345e+01  7.8329740417587686e+01  6.3005073226644619e+01  7.1541767665326930e+01  6.1919005910135354e+01  7.2635187107809330e+01  3.2738539001144979e+01  5.1785358555570568e+01  5.3886621798407319e+01  8.0454257685716414e+01  6.7582274865993540e+01  3.7392486480294117e+01  8.0015889222179737e+01  6.3849920366001044e+01  8.4767115040940851e+01  3.3918125770039467e+01  8.5484962436629189e+01  8.5404333995009154e+01  5.5626408193795051e+01  5.1433445096626315e+01  8.5473347853138904e+01  8.6429468123375443e+01  8.3571962942193764e+01  8.5559181854761945e+01  7.2078170950442782e+01  3.6551747514240766e+01  8.1383531799024993e+01  7.6580789070870168e+01  5.6528737064305375e+01  5.1008056803376640e+01  4.8036218974841603e+01  8.6213113991784894e+01  8.5394077436740332e+01  5.9215848525530326e+01  8.6415103048882145e+01  8.4383671104957514e+01  8.4894594260873376e+01  8.6554486749382676e+01  5.9945056901894290e+01  4.9546626833091828e+01  7.1952777011866573e+01  3.4710744243711844e+01  4.9714959903501295e+01  3.6964065061650231e+01  6.9922635437113385e+01  8.7968991746496016e+01  6.7270712085121929e+01  7.3234015755718232e+01  8.4009086827573896e+01  6.0015652977797295e+01  3.1823619748319857e+01  7.2600450577168687e+01  3.9048169059823287e+01  5.2915238120388139e+01  8.5356674363474454e+01  8.3422489654925997e+01  6.2705354518996984e+01  8.7968414530316309e+01  4.3581334328747587e+01  8.5899100713973894e+01  6.4661483129216833e+01  3.3063382726335767e+01  3.6699187550498507e+01  3.7439241755302753e+01  7.2956851163905313e+01  8.2487972320212734e+01  8.1862189091306391e+01  6.9279184338941093e+01  8.5938012946750433e+01  6.0875773350714105e+01  4.9571000821004965e+01  4.9558606518531114e+01  3.3106753565097364e+01  8.5469717079637789e+01  8.5654018663815734e+01  8.5727352594392698e+01  7.6310188520690446e+01  8.2229498668745137e+01  8.5722441225174592e+01  8.4161706929925700e+01  6.7596896472616208e+01  8.8524215979523433e+01  8.8477975042610865e+01  6.1646932018617946e+01  3.5500347609560286e+01  6.1727754983622539e+01  8.2696145312246514e+01  5.6710985201125347e+01  6.5190401629571156e+01  8.8134794414294547e+01  6.1960935146381743e+01  7.3953159551447570e+01  4.1627114157359472e+01  5.6789703624909400e+01  5.6002924467503803e+01  5.7422170635154195e+01  8.6326971833557934e+01  5.0852429825386473e+01  5.1639119351905393e+01  4.9972173853734802e+01  5.1521821066620852e+01  4.7990709400873619e+01  3.3213237661687224e+01  3.2081732683935542e+01  5.2904009563898640e+01  5.5388941859094970e+01  7.5447840716284020e+01  7.5387987216205815e+01  8.8351117415266216e+01  6.7493752239077338e+01  6.5002485350604161e+01  6.0909398145389524e+01  6.0533060919315893e+01  6.0562622360807268e+01  6.0532009166683046e+01  6.0390067447687017e+01  6.0249575556817497e+01  6.2268798172141103e+01  6.0372975080042004e+01  6.1092829168017865e+01  6.4369689769275340e+01  6.2551059485931923e+01  5.8988541639249085e+01  6.0543506287316433e+01  4.5243624794729804e+01  4.6906659955214081e+01  4.4910340251184735e+01  4.3430465997174061e+01  4.3780948122457211e+01  4.1995592472635281e+01  4.3005843617251223e+01  4.2307852493935663e+01  3.9156808386825325e+01  3.7989014235976491e+01  3.4662296085546231e+01  3.5201314422665533e+01  3.5097640406370559e+01  3.6041129520970891e+01  3.5477414017405039e+01  3.6939505637444441e+01  3.6835746452377862e+01  3.5966845025046126e+01  3.7544140995870436e+01  3.7074112639934029e+01  3.7857666909230311e+01  3.7387827322590226e+01  3.8451449239447115e+01  4.0462826311054535e+01  3.9119557923947220e+01  4.3273465016424680e+01  4.6598703817276238e+01  4.5478555261983644e+01  4.8099652149834981e+01  6.7936235033517335e+01  6.7065911526340017e+01  6.6346562317385775e+01  6.7739788719742450e+01  7.3967831593308659e+01  7.7788871759359409e+01  7.5028547831899218e+01  7.7301538357220053e+01  5.3465667268289003e+01  4.9499798650365257e+01  4.8809556451671959e+01  5.0188773792754873e+01  3.3217317952429113e+01  3.6093859165979588e+01  3.4182968138864474e+01  3.4529626104890625e+01  3.2046152045991029e+01  3.1500589033592064e+01  5.4175728367851626e+01  5.5263262119227903e+01  4.7335726655938046e+01  5.1809641962991606e+01  4.9278714854999187e+01  7.6191298052810353e+01  7.3287894827359892e+01  6.0221535350898307e+01  6.0011183821942417e+01  6.2429091882172024e+01  5.9586470620723382e+01  6.1690782555136494e+01  6.0533236671200157e+01  6.3612829368605261e+01  6.6093424277151328e+01  6.5389344463518128e+01  3.7099266097215427e+01  4.0057537554739994e+01  4.2587799615094461e+01  4.0673142857453215e+01  4.0948949295129175e+01  4.2452561484872440e+01  4.6881712373902232e+01  3.5517002362755491e+01  3.7557054138149361e+01  4.4535475560887981e+01  4.3934571794658297e+01  7.2707316404149211e+01  7.7729175315590325e+01  7.4323037487507094e+01  7.8593381671688434e+01  8.1611407148434623e+01  7.0827977886515711e+01  6.5357822554220277e+01  6.9675759521715733e+01  6.7495049841595588e+01  4.7941814766325379e+01  5.3190281299796162e+01  5.5274574272846039e+01  4.8941978291138547e+01  7.1990236219026031e+01  6.8885696647165105e+01  6.9289524222605252e+01  6.6313993004512454e+01  3.5069417738564908e+01  3.4118845893969755e+01  6.1563699692792937e+01  6.0173416244046948e+01  5.8657237869983177e+01  7.1285122459724462e+01  6.8806337924134255e+01  7.2290516329269764e+01  6.9296320714715804e+01  5.4165993800759381e+01  5.0201728613182659e+01  4.9903060308579484e+01  5.1647324633203695e+01  5.1121808163918587e+01  5.2931720322528804e+01  3.5923494792387466e+01  3.5406730273878118e+01  3.5399630490654175e+01  3.3460286380672208e+01  3.5755736045197544e+01  3.6115158965619102e+01  4.4119566949841719e+01  4.2640746223562026e+01  4.5956274441662124e+01  4.2562767712361662e+01  3.8183991511110932e+01  4.5384492009895183e+01  4.5887972786025450e+01  4.6573389548663329e+01  4.0282804475076006e+01  4.3716597461612324e+01  5.6880066281560651e+01  5.9150782718374735e+01  5.6727182781598998e+01  5.4962123671031328e+01  4.0924026567136188e+01  4.4585626089883313e+01  3.8244221504057876e+01  4.5336686392588433e+01  3.7042832988351691e+01  3.5350860323915555e+01  3.5640089489228146e+01  3.4467351458818413e+01  3.6734524772388028e+01  3.5990800075367666e+01  3.7159150155121033e+01  6.2999451652218958e+01  6.2825327874838280e+01  6.5666785585749381e+01  6.6007853116337174e+01  7.1100775298675629e+01  4.9373940655903681e+01  4.9590045229444740e+01  7.1008667391395647e+01  6.2936694945268307e+01  5.8911056009910851e+01  5.8224004563867751e+01  6.2219437034143056e+01  6.8558459638697755e+01  6.6527366425648765e+01  6.4039104264245708e+01  6.3667209595457287e+01  5.7590709854698453e+01  5.2654171324711356e+01  3.6043779196332601e+01  3.7482742034641063e+01  3.7337211526736887e+01  5.9398216802053234e+01  6.0615312624965647e+01  7.6715549827869069e+01  7.9325866967152521e+01  7.2895851871408439e+01  7.7262882304082467e+01  7.3519108782780265e+01  7.3125255603570594e+01  6.7255877803841628e+01  6.7139695388576087e+01  5.3926524312607839e+01  3.7912672177246385e+01  5.6554546344710431e+01  5.9503014347970577e+01  3.3762389441844505e+01  3.6112894140833916e+01  3.5438105203945412e+01  4.2840840764594439e+01  4.4884814474822875e+01  4.9319696217119706e+01  4.5244831669099057e+01  4.4768888435372126e+01  5.0956721363473164e+01  5.9694285076688367e+01  5.9931051614670032e+01  6.0808722868495046e+01  6.0723123943533892e+01  6.4431307278725953e+01  6.4455099284201964e+01  5.4403213893943182e+01  5.0723179259031426e+01  4.7617541380734146e+01  5.1017623742206254e+01  4.8077857537330694e+01  4.5573040706496251e+01  4.6986396886375246e+01  5.5424961195114243e+01  5.1290533288783912e+01  7.6194233046837070e+01  5.3022517162004355e+01  4.9642614501898628e+01  6.1527603653802935e+01  6.4957856902075662e+01  6.9566957710144251e+01  6.7366480773295805e+01  3.7218571149794435e+01  3.4663545853332145e+01  3.7088908656766655e+01  5.9929013953120510e+01  3.6199160220224101e+01  6.0672266668367698e+01  4.1224238759263770e+01  3.7999009797142264e+01  6.1678459268874377e+01  4.5216778719179132e+01  6.7795648635627245e+01  3.1827562580580885e+01  3.2363620696203441e+01  3.2014276964904703e+01  3.1224792082931199e+01  3.2455298527716621e+01  6.0981743223169289e+01  3.9866732983431056e+01  4.3721484642366271e+01  4.1849064475205353e+01  7.5916613138532540e+01  5.7389755472916868e+01  5.0133743464770717e+01  5.0453297396767255e+01  5.2221461301678580e+01  3.4278956144445111e+01  6.9064036258050351e+01  6.9654103945309586e+01  3.4838994698694073e+01  3.4823111409776629e+01  4.2896159262899836e+01  4.2541862559864278e+01  4.1165810628980196e+01  5.5909211674973378e+01  6.0086998768262468e+01  6.1644090827987391e+01  5.8990663620539785e+01  6.2459832139955331e+01  3.6534783678861572e+01  3.6971493710711371e+01  3.6948022642541929e+01  3.7039805189644738e+01  6.8963853720363375e+01  3.7039974014454316e+01  3.9921659847074864e+01  4.1027822649469385e+01  4.5731549097483175e+01  4.6005738714715953e+01  4.6676393886880724e+01  4.4284080399416816e+01  3.6304730279031446e+01  3.5009460915397177e+01  3.5697524140255659e+01  4.7027414325700647e+01  7.3115242494374954e+01  7.3938365791510648e+01  7.5104355596470938e+01  6.2593221162403189e+01  6.6131878793919853e+01  5.0236915439190014e+01  4.8348006285117044e+01  4.7710880448184234e+01  4.8915103227986698e+01  6.3819180567088310e+01  6.0990838472181920e+01  6.1640713291512355e+01  3.1902006932435210e+01  3.2105472240900482e+01  3.3288951981491508e+01  5.1588205089719970e+01  5.3306090250227946e+01  5.2478853817200225e+01  5.0429553897979829e+01  6.6262872872376221e+01  3.6511129190765153e+01  3.6468836241428434e+01  3.6610880624084061e+01  6.0417860177927452e+01  6.0216942981975343e+01  6.0253763315282740e+01  4.2162810038889575e+01  4.3606609835023974e+01  4.4520046786481053e+01  3.7276557444852543e+01  3.5728930163012670e+01  3.5877276080232868e+01  6.1432048721060234e+01  6.2998152724989446e+01  6.2097451318826387e+01  6.1270627200903995e+01  6.1259132713225029e+01  6.1756923786472136e+01  6.0842454121897582e+01  4.5149504514715929e+01  3.6108613597361682e+01  4.2798141333176609e+01  6.8525231357294473e+01  4.9479791984418014e+01  4.9090679421093661e+01  3.1621228299779538e+01  3.2842276278671271e+01  3.5704699841149974e+01  3.7958384601209993e+01  3.4026199611768654e+01  3.3880350295356948e+01  4.7925636496832439e+01  4.5965374441448837e+01  4.7248692884387161e+01  6.1336152063016961e+01  6.0989463634014072e+01  3.5938298697687522e+01  3.7672192608249937e+01  3.7083569837057219e+01  3.8893808405823329e+01  4.5474729306829921e+01  3.5919555751526161e+01  3.7995340050318646e+01  3.6141179040271638e+01  4.7166220230375487e+01  7.5394932820644698e+01  4.8446262108523122e+01  5.1254961144972761e+01  5.1002420566923512e+01  6.7220722894345300e+01  6.7880670202965078e+01  6.6452445258028376e+01  5.0688900527542827e+01  5.2902114774850610e+01  5.0486339564029933e+01  4.4624479048499062e+01  5.4303216852132394e+01  5.4486785165359379e+01  3.6484963011121316e+01  3.7229887011424680e+01  6.4246432171041477e+01  6.3885338157653507e+01  6.5219975089848631e+01  3.7342809973269830e+01  3.6144796202629109e+01  </DataArray> 
</PointData> 
</Piece>
</UnstructuredGrid>
</VTKFile>