<?xml version="1.0"?>
<VTKFile type="UnstructuredGrid"  version="0.1"  >
<UnstructuredGrid>
<Piece  NumberOfPoints="784" NumberOfCells="1320">
<Points>
<DataArray  type="Float64"  NumberOfComponents="3"  format="ascii">266913.131276 586512.314988 0  266738.13716 587762.325998 0  266363.132677 589012.328643 0  266175.641078 590169.601714 0  265666.575631 591040.7699119999 0  264875.64001 591687.766419 0  264900.636161 591845.049083 0  266088.14152 592012.3229499999 0  265561.959259 592661.17101 0  264288.136855 593037.368683 0  263865.194033 593999.8486949999 0  263850.641856 593236.729596 0  263625.634872 592756.525286 0  262689.574249 593299.848918 0  262475.636737 594003.0907310001 0  261934.554452 594340.929792 0  261725.631329 594932.094409 0  261729.256443 595728.498809 0  262138.136044 595012.330523 0  262288.141035 596262.333669 0  261488.994028 597511.480605 0  261234.15567 598316.338928 0  260815.635063 599014.863821 0  261400.643658 599389.7367680001 0  261322.963374 600022.185065 0  261119.455248 600931.061306 0  261607.436504 601293.0629359999 0  260807.446929 602089.899812 0  260025.642878 602988.868697 0  259613.135827 603937.3854499999 0  259050.643123 604100.987861 0  258411.880065 603988.6335979999 0  257764.357469 604449.872569 0  257971.239668 605320.429125 0  258041.396867 605740.635381 0  257188.143339 606987.394312 0  256038.141198 608112.3554550001 0  254788.141633 609087.4026939999 0  253588.140656 609812.362881 0  252338.135706 609737.4048949999 0  251088.138116 609787.404055 0  249963.12851 610287.399466 0  248613.130524 610462.365857 0  247363.132198 610687.407659 0  246113.130532 610837.411551 0  245832.347438 610918.209918 0  245016.946433 610958.5639439999 0  244313.129646 610762.372259 0  244400.622144 611378.093316 0  243939.669208 612460.8930899999 0  242960.649733 611984.892792 0  242170.381438 611919.647351 0  241888.122919 611112.375656 0  241393.380757 610467.6456149999 0  240594.157528 611306.369822 0  240525.621947 610804.648112 0  240363.123632 610512.3745050001 0  239113.123247 610262.374278 0  239813.12126 609037.412459 0  240588.122952 607812.368199 0  241013.119545 606625.9534560001 0  241454.373249 605724.888025 0  242238.120107 604687.3993 0  243088.121248 603462.362766 0  242860.319451 603007.3932640001 0  241563.116617 603812.361344 0  241778.400913 604327.642217 0  242059.837234 604824.879102 0  241475.620201 604923.2402390001 0  241462.182234 605449.881372 0  240906.219606 605674.888222 0  240241.856192 606891.125066 0  239891.734044 607841.012479 0  239048.653431 608724.889805 0  238118.054545 608974.895967 0  238888.111029 607337.406468 0  239738.119992 606212.362729 0  240288.12044 605687.4075229999 0  240380.212307 604729.521696 0  239347.309632 604603.204501 0  238888.112036 604387.408787 0  237913.11173 604687.401386 0  236784.172023 604499.882783 0  236883.408793 603717.08334 0  236154.933927 603595.565605 0  235688.103943 602912.369264 0  235763.108033 601662.366516 0  236363.110805 600412.35884 0  236738.107995 599162.356577 0  236525.607944 598482.2412899999 0  236138.109208 599362.357613 0  235725.063048 600325.4466510001 0  235091.948926 601408.5220979999 0  235188.10921 600312.366344 0  234375.602405 600833.9674270001 0  234663.109308 599912.358011 0  234138.105122 600062.365644 0  233955.307245 599029.561063 0  233338.103791 598387.401556 0  233988.09795 597862.356384 0  235138.101489 596637.3947750001 0  235563.1039 595387.392428 0  236513.103639 594212.356312 0  237163.10684 592987.3929869999 0  238313.103031 591862.3515540001 0  239513.107028 590812.3512640001 0  240638.102135 589787.387271 0  241463.109549 588587.378486 0  242294.489816 587443.735215 0  242913.101099 586512.341804 0  243544.066915 585474.859604 0  243040.448415 585184.975583 0  242438.10214 585337.38015 0  241313.102353 586562.339499 0  240538.107104 587787.382449 0  240114.641085 588588.939407 0  239388.100256 589437.382238 0  238188.104456 590512.346358 0  236938.100507 591362.349798 0  235813.10453 592537.396388 0  234864.502938 593178.7753880001 0  234463.097651 592862.357267 0  235113.0965 591662.3545979999 0  235713.101522 590412.346099 0  235777.688431 589976.7582779999 0  234943.583145 590706.265132 0  234462.482256 591490.2841159999 0  233801.497784 592112.940187 0  233388.099101 591787.394208 0  234013.093099 590437.393065 0  234776.217248 587148.7548100001 0  235163.093726 586562.3486189999 0  235313.098918 585483.229012 0  235250.59732 584662.298153 0  235588.093896 583337.379493 0  236329.432041 582199.858992 0  237188.096234 581462.3349939999 0  237463.088521 580212.335511 0  238350.592558 579057.652616 0  238591.415797 578574.847681 0  238313.094106 577612.328905 0  239229.696732 577695.769664 0  240195.161018 577513.008613 0  240614.996733 577149.8518770001 0  240663.091715 577412.332622 0  240288.092486 578662.334085 0  239942.357258 579508.095811 0  240438.100019 580212.3334220001 0  241338.095553 580387.375355 0  241238.099828 579137.369157 0  241788.097003 577887.370889 0  241983.554649 577241.9220939999 0  242054.178239 576927.8105029999 0  242588.100699 575737.366175 0  243149.324833 574898.583978 0  243695.278626 573919.517981 0  244268.494418 573724.8454239999 0  244995.134063 573930.2767810001 0  245417.314363 573391.601898 0  243450.599125 571859.479773 0  245776.797908 572599.8353060001 0  246779.639852 572973.285167 0  248034.741935 573186.082054 0  249413.10651 573162.3205520001 0  250496.922226 573271.1521899999 0  251613.105126 573237.3551319999 0  252421.824577 572846.032906 0  253256.245022 572580.4733130001 0  253739.471933 571960.9547369999 0  254174.511864 572149.8346569999 0  254484.944333 571684.194807 0  254384.108649 570891.346712 0  254344.002752 570218.26407 0  255025.609604 570829.0294979999 0  255715.005913 570489.264586 0  256218.846343 570774.828355 0  256834.349083 570508.5908 0  257390.092515 570014.308325 0  257624.431042 568493.478911 0  259355.811717 569380.021819 0  260033.372814 569617.066669 0  262679.741751 570320.699974 0  263289.115756 569524.817815 0  263463.114338 570512.301061 0  264638.198419 570687.3443539999 0  265058.220065 571334.378467 0  265447.561421 572077.90485 0  265488.125257 573137.3446020001 0  265131.937715 573963.293593 0  265432.389648 575093.068786 0  265638.122314 576338.029955 0  265750.630817 577371.8281319999 0  265738.570663 578561.9098850001 0  265875.630866 579139.630549 0  266213.129247 579862.311842 0  266563.130472 581112.314509 0  266238.135356 582362.310259 0  265938.12863 583612.320897 0  265738.131342 584762.3210189999 0  266875.638633 585365.358768 0  264018.7239399826 593650.4646671159 0  262236.3944351029 595831.1252656333 0  241846.246678 605206.1436625 0  240200.622106 608424.8903290001 0  240943.4862974102 610939.7757535663 0  236550.6094 599787.3577085 0  238528.1212051503 608102.9081793013 0  244413.4891967989 572609.5960859474 0  236382.0474488751 598808.3067022427 0  235369.601910944 600933.5380148316 0  235413.099011 591037.3503485 0  235446.2251831186 590266.6553871984 0  240475.5921005 578037.3333535 0  240413.173949154 577324.4280286073 0  240574.037899 606283.0066440001 0  263857.9179445 593618.2891454998 0  264153.4303974913 593343.916675058 0  242042.1833925 604946.7714812499 0  241650.3099635 605465.51584375 0  244613.6985165 572229.6575395 0  236631.8579695 598822.2989335 0  235140.029068 600860.444221 0  241767.7287175 604874.0596705 0  242140.15174975 604817.0853906251 0  234781.8558075 600573.1668855001 0  242091.167571125 604881.9284359375 0  234519.3558565 600373.162719 0  254604.8337712102 583989.0014118921 0  250699.5846056537 594617.3297041012 0  250540.4796469513 602258.2940568649 0  248483.7490186612 580334.7345534252 0  258549.2190328319 577893.951823392 0  257067.0067473103 590016.5327808241 0  243285.0921999099 596333.923437875 0  248333.1386145258 589098.0389905117 0  256142.8445072741 595883.3911551933 0  260245.1368072523 583315.2785712298 0  253472.3380211276 578932.2908163272 0  246432.3347504817 599884.5019511909 0  261555.9240922556 588041.186709004 0  247293.1100123104 605823.8307887657 0  246458.2798550911 593168.8646574575 0  252840.0183145193 588226.5564648228 0  249828.2874404451 584740.7888937403 0  255409.5660975206 600458.8956828594 0  260819.9733392385 574219.403683011 0  252584.2262054711 605722.6603825617 0  254049.8830611471 592547.4852571967 0  250015.4356193061 598425.2225922942 0  245872.072249477 577604.9761853142 0  262002.1583249522 579753.4663046852 0  257732.6630933878 586227.970805314 0  250242.5556457866 577017.3316409125 0  244921.6453001869 581816.6358421432 0  256520.3890639471 580904.824006648 0  240779.0970645865 599524.6679555867 0  257100.1829219198 574459.5922545703 0  239912.2630002034 595231.1172704464 0  244703.0875078634 590068.6945953515 0  242549.5490268674 592874.3693043783 0  251586.0465921376 581796.2215047925 0  246643.189997516 596527.447801719 0  251049.7658069622 591057.6752245198 0  253014.5731561695 596998.6601086652 0  238680.2197353724 584542.2309791476 0  259715.365803504 591937.1938619445 0  254097.157218761 575731.4494927844 0  246806.6408589328 586139.0877599345 0  246136.1179750556 602959.471719323 0  253520.7033332401 602835.180253843 0  244125.4295793909 607538.9817227355 0  252546.8895354472 599881.3279113505 0  258289.0983523553 600397.640191779 0  247518.7952199645 583037.3718217331 0  263140.3959879661 582529.2228421422 0  262894.8586894067 585442.3590432997 0  256968.6320599076 593040.7691844478 0  243573.0187527719 600218.2795730785 0  258888.5766127351 595139.7745218446 0  262588.7569809347 576734.8569237856 0  259318.4257992262 580601.2540325444 0  249963.3812725965 607065.7205847671 0  257494.5307999607 583482.5893534871 0  258906.4757205145 572278.8089438241 0  237751.446593475 587300.5805003279 0  255142.4708720699 604956.7580261135 0  258485.4978753244 597756.9250383095 0  255516.7820591553 587791.39641967 0  239758.4692108706 601926.8203218657 0  255873.0092222999 577739.5085867504
[...]
<PointData  Scalars="f_24704-1"> 
<DataArray  type="Float64"  Name="f_24704-1"  format="ascii">4.1298487836373035e+01  4.2636965522625594e+01  4.4660822602229700e+01  4.6526183865344713e+01  4.7884353491363989e+01  4.9934362638387185e+01  5.0610204100927518e+01  5.1006895507804089e+01  5.1074453465694113e+01  5.1846604955224073e+01  5.2373505868911401e+01  5.2131508529470608e+01  5.2202688096894960e+01  5.4626446749626240e+01  5.6043501329743997e+01  5.7216970131952088e+01  5.8682102015856096e+01  6.0131701255801246e+01  6.0034809170770927e+01  6.0535583130110034e+01  6.2782786520086418e+01  6.4525309371085982e+01  6.6500209472029169e+01  6.7525014805451605e+01  6.8084417103855145e+01  6.9425430100052196e+01  6.9810822808920108e+01  7.0577973228259324e+01  7.1977555638894557e+01  7.2788437541455124e+01  7.2961804866892436e+01  7.3368745213907445e+01  7.4440064803356961e+01  7.5346243706913569e+01  7.5521454670022550e+01  7.6434729579743646e+01  7.7716547796191122e+01  7.9077714106499343e+01  8.0058993990913038e+01  8.0866112228255901e+01  8.2079865702501962e+01  8.3226355418787151e+01  8.4239360452516806e+01  8.5121656045856810e+01  8.5899739697376020e+01  8.6061923771554873e+01  8.6477472646944634e+01  8.7019884392618451e+01  8.7457359791630495e+01  8.7664962319402335e+01  8.7710239206568971e+01  8.7753205959702711e+01  8.7731648147331967e+01  8.7815745282470161e+01  8.8044039192497692e+01  8.8025853266469127e+01  8.8028741747841735e+01  8.8125326992729640e+01  8.7873981508054086e+01  8.7121723134794593e+01  8.6292914311272057e+01  8.5612497330623995e+01  8.4531061008758030e+01  8.2782123370553080e+01  8.2570927980392355e+01  8.4770679100542864e+01  8.5335921086786954e+01  8.5464243528210844e+01  8.5619530823166059e+01  8.5836080345340548e+01  8.6124966291861568e+01  8.7190537292839295e+01  8.7610476845338340e+01  8.7867889639950519e+01  8.7928508801366718e+01  8.7641640274896375e+01  8.7018575404246420e+01  8.6413310871826496e+01  8.5796442000121246e+01  8.6199589067791933e+01  8.6516617643533849e+01  8.6945051716702949e+01  8.7063574635379481e+01  8.7059172213129244e+01  8.7108896071286452e+01  8.7084905815789057e+01  8.6803135960498636e+01  8.5900311333024860e+01  8.4402940648336596e+01  8.4242763940080394e+01  8.5746493891512287e+01  8.6394613906747367e+01  8.6587922527413582e+01  8.6443633886707488e+01  8.6536942973831245e+01  8.6382593138073020e+01  8.6374190939263485e+01  8.6176385392805400e+01  8.6092329646091159e+01  8.5799756853487025e+01  8.3508237212388664e+01  8.1098950691345934e+01  7.7952067341597811e+01  7.4933992669111291e+01  7.2048768629203821e+01  6.9722304584621952e+01  6.7945429060624988e+01  6.6328306329087098e+01  6.4670740105094453e+01  6.3158295153246478e+01  6.1246108296240941e+01  6.0542335054228573e+01  6.0943989269333045e+01  6.3917159101040895e+01  6.6210528345138300e+01  6.7127108945437058e+01  6.8071736484676791e+01  6.9756442820184603e+01  7.2127806098839471e+01  7.5017363399118040e+01  7.5874013676387662e+01  7.5883726199926642e+01  7.4598858165160166e+01  7.2183097033005865e+01  7.1765591817550174e+01  7.3929074619391855e+01  7.5417189773437300e+01  7.5937273682392018e+01  7.5943090021217799e+01  7.4340035255462055e+01  6.9538928807639095e+01  6.8822693630421085e+01  6.7767888737954408e+01  6.7196303570668832e+01  6.6286964952734564e+01  6.5133604480560095e+01  6.3752552937083678e+01  6.2432179473686688e+01  6.1239132465586081e+01  6.0723657198693175e+01  6.0422664562821545e+01  6.0297640719030326e+01  5.9933183602776609e+01  5.9826765264629643e+01  5.9839419771896473e+01  6.0313701505754473e+01  6.0983821016818894e+01  6.1083064143336294e+01  5.9923732130710839e+01  5.8651529936138900e+01  5.7446530952799499e+01  5.6708410449577663e+01  5.6382434817238995e+01  5.4877549525758141e+01  5.3490008471411812e+01  5.2226105659422537e+01  5.1836883272811086e+01  5.0663818242196648e+01  4.9193535360089804e+01  4.9340983957912535e+01  4.8757902639978653e+01  4.7907665527112854e+01  4.6014129233749472e+01  4.3815778247495061e+01  4.2393669786619029e+01  4.0800382105899324e+01  3.9460567223998630e+01  3.8177343287487439e+01  3.7445885253127244e+01  3.6988905526823054e+01  3.5955886359957852e+01  3.5334249213589068e+01  3.5263257357106404e+01  3.5154564156200209e+01  3.4618486637386589e+01  3.4151594307735756e+01  3.3617683563549996e+01  3.7310632469929160e+01  4.4948147847081408e+01  3.7832042836187050e+01  3.4851787142677949e+01  3.3053312939061797e+01  3.3176679384767439e+01  3.3278459899949432e+01  3.2902935970382991e+01  3.2421445365448541e+01  3.2011740665527270e+01  3.2091662990574683e+01  3.2622808270549427e+01  3.3403467365162371e+01  3.4174296264099844e+01  3.4972926618707710e+01  3.5992138267031990e+01  3.6444470143005091e+01  3.6994615845073234e+01  3.8342785356550536e+01  4.0270852312510343e+01  4.1197973990032295e+01  4.0817128973479399e+01  4.0760136421356727e+01  5.2310316523252268e+01  6.0276683987224594e+01  8.5124835306593553e+01  8.7560400415631065e+01  8.8014787914827679e+01  8.5183299884219579e+01  8.7844525503873626e+01  4.9144289504896975e+01  8.5005189961619493e+01  8.6550921743048320e+01  7.3395343183805153e+01  7.2585501787339680e+01  6.0004183389814052e+01  5.9848604155573767e+01  8.6729553982783571e+01  5.2310515016561716e+01  5.2159648735705680e+01  8.4841003984152579e+01  8.5385449846893650e+01  4.9143511717252622e+01  8.4091370263448084e+01  8.6550964693154171e+01  8.5491063897495565e+01  8.4690125675185001e+01  8.6505112476912302e+01  8.4766388282833475e+01  8.6504553483145628e+01  4.9213413416629336e+01  6.6810264715268929e+01  7.5794785898977764e+01  5.1648438769919629e+01  3.6572705311956142e+01  5.3201214104271322e+01  7.5098116902125099e+01  6.1281656321676188e+01  6.4399517149707904e+01  4.2038461812787908e+01  4.3188269722229116e+01  7.5439624470575822e+01  4.6615599926531480e+01  8.2025858789297061e+01  6.7612815163719063e+01  5.4555601232059459e+01  5.6567046098658494e+01  6.8935931235076723e+01  3.3698206993220694e+01  7.8000483822959524e+01  6.1611341428859419e+01  7.0722967693776184e+01  5.2195573951775366e+01  3.6847765538425385e+01  4.7040871152321728e+01  4.5172369431372360e+01  5.7609948351230940e+01  4.2949201819128071e+01  8.1207043072222277e+01  3.6613421865767833e+01  7.5730960740505893e+01  6.4745600898852203e+01  7.0018290607877304e+01  5.0642941802027231e+01  7.2549274628153029e+01  6.0537050977273267e+01  6.7892979661142107e+01  6.4845564496497587e+01  5.5739904410363089e+01  3.8634938837814019e+01  5.9722499775782509e+01  7.9750059357914907e+01  7.4551566027554330e+01  8.5517963183691137e+01  7.1170345101122919e+01  6.9520655790983810e+01  5.6289192783928598e+01  3.9503837358353174e+01  4.1649360070222990e+01  5.9451298939924385e+01  7.9099269119738111e+01  6.0961792441312191e+01  3.5140139564421311e+01  3.9116644332139899e+01  8.1185451764544695e+01  4.5154842122913017e+01  3.2061207402391950e+01  6.7732338109305076e+01  7.5868470400770732e+01  6.5268723956118407e+01  4.9738149759670478e+01  8.5238700262445448e+01  3.8535814181410132e+01  5.0866924003573999e+01  5.9961555938831488e+01  6.5388038042491502e+01  5.6397313939201403e+01  4.7081180542114758e+01  4.3735444230409342e+01  5.6475066978750320e+01  4.8006551045426647e+01  4.7854628259872321e+01  4.4611445498734625e+01  4.9420906155775583e+01  8.4572496753166817e+01  7.8528002330783337e+01  5.2970164998624909e+01  8.3150590399379240e+01  7.5790891270112326e+01  7.3827853748041434e+01  8.0534255937696884e+01  6.2604045365906892e+01  5.9097304997289882e+01  6.6322000791096926e+01  7.2342715136726625e+01  5.7978020785342444e+01  7.8266428827387600e+01  5.0798634997308980e+01  6.5584335104729107e+01  3.2558099238671836e+01  4.9478373366429587e+01  6.8983778074956163e+01  7.7472971286628152e+01  6.3927002464651828e+01  7.0946405481739376e+01  6.2267135298558905e+01  7.1576182366650087e+01  3.5756011325567279e+01  5.3425384261571899e+01  5.3327020395288223e+01  7.9802591011698524e+01  6.7417068934426283e+01  3.7487715616897198e+01  7.9351320827583891e+01  6.3589081894609272e+01  8.4333784428096592e+01  3.3390474777872889e+01  8.4806107694080495e+01  8.4735007609032323e+01  5.5300667884169691e+01  5.0971220453753077e+01  8.4806684245503803e+01  8.5810482233914115e+01  8.2965525726120006e+01  8.5174115754536572e+01  7.1499764350029295e+01  3.6091156728449150e+01  8.0808287651317713e+01  7.5853929222048933e+01  5.6171841690630998e+01  5.0550900506788864e+01  4.7251325070458648e+01  8.5534650540830654e+01  8.4729773495605031e+01  5.8407852094330160e+01  8.5896795953959497e+01  8.3740751194008467e+01  8.4238259796937839e+01  8.5968235718721417e+01  5.9802440652594740e+01  4.9018641598646418e+01  7.1153292749579222e+01  3.4190564640274836e+01  4.9056221609985677e+01  3.6653419314631918e+01  6.9169410936098288e+01  8.7324376503083784e+01  6.6705098246277814e+01  7.2799886387831918e+01  8.3452712308133314e+01  6.0088212430524216e+01  3.2095737165894704e+01  7.2039810966303932e+01  3.9486295356031604e+01  5.2317788949293508e+01  8.4930253085198316e+01  8.2949887796024484e+01  6.2023733411986477e+01  8.7330804301474686e+01  4.3937686947345952e+01  8.5473359320226777e+01  6.3871489864442943e+01  3.2516140198106861e+01  3.6259172892240500e+01  3.7343569577467463e+01  7.2559372877634416e+01  8.1857427990633013e+01  8.1156241082173551e+01  6.8685011870409539e+01  8.5263916728029756e+01  6.0021364681622877e+01  4.8987977134807018e+01  4.8978568614490747e+01  3.2758897049119348e+01  8.4804208382660093e+01  8.4985777311889990e+01  8.5057254847781223e+01  7.5584328642600283e+01  8.1589349966529795e+01  8.5141365900458752e+01  8.3572547695525785e+01  6.6928916224676712e+01  8.7960977125188336e+01  8.7905033133898883e+01  6.1141947200327358e+01  3.5075808779434688e+01  6.0954393429954614e+01  8.2086579065637466e+01  5.5982191108231355e+01  6.4647534369823163e+01  8.7534113969381224e+01  6.1813119124662258e+01  7.3414030708054966e+01  4.0890528290281658e+01  5.6435621590483102e+01  5.5661941117373487e+01  5.7054851595711398e+01  8.5941016430667517e+01  5.0388091302419419e+01  5.1283384287826351e+01  4.9404432181022500e+01  5.1153479962577272e+01  4.7405475706452833e+01  3.2895155572392966e+01  3.1285019709513268e+01  5.2280949987697582e+01  5.5026031705758982e+01  7.5601224902909436e+01  7.5517634341986764e+01  8.7753824164440701e+01  6.6980022108835698e+01  6.4879154356129817e+01  6.0773305783705993e+01  6.0293257628831157e+01  6.0414404955444439e+01  6.0616354300847718e+01  6.0305232054567220e+01  6.0327937524396646e+01  6.2281016439508804e+01  6.0472707835097935e+01  6.1101267156304111e+01  6.4078811685995461e+01  6.2445789734464284e+01  5.8662099109853138e+01  6.0158007117049500e+01  4.4831135374939770e+01  4.6544508927666122e+01  4.4732360011426707e+01  4.3105101109416680e+01  4.3680186365147840e+01  4.1647415664865278e+01  4.2962752123355855e+01  4.2260568211600550e+01  3.8917683395050659e+01  3.7727644483942633e+01  3.4042182126650040e+01  3.4556926872821116e+01  3.4500273310832235e+01  3.5478556658338142e+01  3.4932563037171363e+01  3.6229335068094656e+01  3.6269901067957370e+01  3.5472555370078993e+01  3.6717137594616190e+01  3.6452134291451841e+01  3.7220850944604990e+01  3.6671565857243365e+01  3.7931907750487269e+01  4.0359642408551693e+01  3.8901357613114030e+01  4.7235703649900664e+01  4.6503413614487442e+01  4.6927008344303125e+01  5.0208868130519157e+01  6.7974156189951174e+01  6.7244993958111507e+01  6.6290101088149896e+01  6.7771504206692910e+01  7.3852824469015999e+01  7.7212494661905268e+01  7.4906642224700207e+01  7.6909479232907159e+01  5.4220808298367842e+01  4.9964429507071216e+01  5.0341171706803323e+01  5.2404038674555522e+01  3.6991143444023365e+01  3.8669213637490827e+01  3.6763879363276359e+01  3.7555910152241857e+01  3.7024698014932120e+01  3.6351626371466473e+01  5.4780048910701424e+01  5.6507823347398585e+01  5.1220705981531324e+01  5.4401365344485811e+01  5.1142646945482568e+01  7.5487906615562849e+01  7.2718708121670858e+01  6.0578942282822830e+01  6.0383627601534869e+01  6.2794802504389338e+01  5.9740559274187326e+01  6.2606534613840417e+01  6.1351877159319251e+01  6.3253220329058692e+01  6.6266477187246252e+01  6.5109164981886380e+01  3.8571916673824710e+01  4.0070585929819153e+01  4.1800369493717561e+01  4.0694462234459671e+01  4.3580376432269489e+01  4.2997606424361138e+01  4.7324314980185854e+01  4.0223057288962075e+01  4.0700440710249993e+01  4.5274084746861490e+01  4.5662373453463559e+01  7.2883509467308087e+01  7.7393990824933027e+01  7.4215745204274967e+01  7.8180471553415600e+01  8.0994857142499512e+01  7.0330589779550607e+01  6.5660747460151597e+01  6.9189566165452803e+01  6.7351505635403655e+01  5.1844721289374029e+01  5.5488563483877101e+01  5.6231329626838317e+01  5.2021634016605915e+01  7.1948696743742687e+01  6.9292311811013434e+01  6.9382139954141024e+01  6.6951278167240801e+01  3.5090718447404420e+01  3.4191684154096457e+01  6.1489401648723430e+01  6.0416412352712442e+01  5.9252109827257108e+01  7.1343016122923018e+01  6.9107581779285425e+01  7.2566597203041951e+01  6.9275381476548489e+01  5.4208898665467871e+01  5.0275760340609729e+01  5.0685669903893732e+01  5.2412855611704039e+01  5.0837451260782260e+01  5.2550475397459373e+01  3.7560480528386599e+01  3.6461716248272658e+01  3.7587350154308361e+01  3.6519921113667557e+01  3.7008681756000634e+01  3.6894544571690759e+01  4.6057055234521094e+01  4.7984658614652027e+01  4.7993544688032578e+01  4.8008686345331583e+01  4.1033906371723390e+01  4.6425043233753939e+01  4.6460163843911069e+01  4.7573222197019291e+01  4.1820337199407696e+01  4.4439316780922312e+01  5.7246482907708021e+01  5.8955639649262565e+01  5.6735430858565337e+01  5.5956481277133939e+01  4.0843377867188984e+01  4.4375259803166408e+01  4.0185174838174312e+01  4.5035684985110699e+01  3.7671399913240741e+01  3.4803594576275323e+01  3.7584271157071001e+01  3.6191247570906562e+01  3.6349917786664349e+01  3.5496034149629324e+01  3.7041103610863715e+01  6.4005438687857151e+01  6.3415348733573907e+01  6.5997904701308613e+01  6.6016467287624621e+01  7.0469540301873764e+01  4.8920273126705567e+01  4.9385004092452000e+01  7.0688264703427194e+01  6.2859413049544656e+01  5.9499932080908472e+01  5.8798716820529563e+01  6.2096724128671141e+01  6.9175598685870128e+01  6.7178482489647564e+01  6.3635642430087906e+01  6.3381653784645898e+01  5.7526543331582417e+01  5.2679170672280492e+01  3.8934430252721583e+01  3.8772750055726128e+01  3.7895415646244629e+01  5.9192765916707401e+01  6.0903160673579642e+01  7.6411708768132144e+01  7.8875547467602303e+01  7.2800159401962702e+01  7.6575134901972902e+01  7.3188292344935334e+01  7.3261785185408314e+01  6.7940308332136965e+01  6.7443403221173270e+01  5.5382391790745721e+01  3.8416237183251042e+01  5.7671231672674807e+01  5.8963816888767084e+01  3.5274064030339503e+01  3.6158661501629176e+01  3.5176176516454468e+01  4.2461221938663812e+01  4.4904090866379896e+01  5.2814144689224889e+01  4.9145349650038909e+01  4.9773463893902829e+01  5.0490272780566706e+01  5.9664344521591929e+01  5.9944110883318906e+01  6.0548629547377352e+01  6.0648446917623161e+01  6.4705584677951137e+01  6.4297661852513556e+01  5.4780493321790885e+01  5.0172416523944641e+01  4.8661697367806546e+01  5.0777933548214428e+01  4.8711963524495985e+01  4.5800513060601233e+01  4.7042799025425644e+01  5.5549286434637992e+01  5.2220701503465762e+01  7.5939336703221926e+01  5.4261903947399247e+01  5.1162362395953025e+01  6.2659935064873402e+01  6.5439281041613455e+01  6.9057693479106334e+01  6.7140892970071008e+01  3.7062289263827658e+01  3.4145700494674053e+01  3.6811040333160499e+01  5.9937485451578063e+01  3.5991389978674277e+01  6.0663357014407559e+01  4.1765666007492598e+01  3.8185125493029787e+01  6.1426485147889004e+01  4.8582742836911564e+01  6.7865971677776656e+01  3.6783072042977139e+01  3.7212368237714969e+01  3.6523605723658186e+01  3.6697215119477455e+01  3.6453504201992509e+01  6.1949042899185706e+01  4.3306847905432690e+01  4.5322198367714009e+01  4.4399063719140109e+01  7.5663981568786014e+01  5.8341653031498772e+01  5.3167080152599397e+01  5.3144019160977301e+01  5.4088372015148366e+01  3.4950305805656036e+01  6.9113704826983536e+01  6.9722890954537561e+01  3.7346667973467262e+01  3.7036002259150457e+01  4.6886756512203725e+01  4.7311016755175629e+01  4.2985637237230875e+01  5.6772150438089028e+01  6.0300152382483780e+01  6.1601683888401652e+01  5.9417566218616706e+01  6.2348861880300596e+01  3.9574040310064909e+01  3.8103502443183906e+01  3.8628169530587861e+01  3.8260107962333130e+01  6.9490434392764115e+01  3.8303343855852930e+01  3.9919064367920015e+01  4.0755953569152965e+01  5.0372154856658959e+01  5.0699218485468116e+01  5.1104010214502047e+01  4.9256345913837364e+01  3.9593423093516790e+01  3.7882668107128708e+01  3.8808359368906551e+01  4.9311695509473232e+01  7.3226463347960305e+01  7.3878889421046679e+01  7.4897093014819930e+01  6.2297402573807744e+01  6.6891903974667059e+01  5.2383314396193448e+01  4.9872746996795655e+01  4.9046476154240722e+01  5.0350124700433298e+01  6.4591851567103973e+01  6.1649492069856201e+01  6.2356522479670680e+01  3.6406967959211606e+01  3.6140793349402763e+01  3.5939922011468127e+01  5.2765774174527920e+01  5.4714462397858632e+01  5.4369603908818469e+01  5.2132971327918249e+01  6.6418933999809425e+01  3.6123861688037550e+01  3.6448897877137092e+01  3.6351679613531658e+01  6.0481384483358674e+01  6.0237314018238237e+01  6.0300336549151368e+01  4.2944481855429295e+01  4.4157574641140002e+01  4.4828171217846958e+01  3.7437808429926314e+01  3.5279506532625966e+01  3.5645025881047069e+01  6.1362680523928425e+01  6.2806584603696173e+01  6.1983604532192189e+01  6.1166616451135454e+01  6.1181820765339936e+01  6.1574565617757187e+01  6.0845208694075104e+01  4.5169818764810444e+01  3.5727326245926967e+01  4.7615612250819574e+01  6.8517683197183757e+01  5.1295653482457354e+01  5.0735775818791666e+01  3.6612602581292180e+01  3.7591118540589925e+01  3.7713601306363998e+01  3.8927764386343860e+01  3.8233381263465091e+01  3.7228283004892219e+01  5.1027826960489975e+01  5.0032525839209725e+01  5.0075509787064085e+01  6.1436545224708460e+01  6.1974452986977028e+01  3.7853893387566210e+01  3.8658360800134432e+01  4.1562570225874261e+01  4.2044723727561774e+01  4.6550995633144190e+01  4.0349140563750623e+01  4.0410826055071261e+01  3.9634496071888684e+01  4.7680404140313478e+01  7.5156191234034665e+01  5.2265599545560434e+01  5.4130404177328373e+01  5.3081366634370859e+01  6.7794914640844965e+01  6.8450376164803686e+01  6.7150767852084073e+01  5.1489426392623663e+01  5.3532123421831933e+01  5.1695565960686565e+01  4.5095750244773200e+01  5.5692136806927010e+01  5.5225225094817716e+01  3.8274625623880866e+01  3.7756143956517114e+01  6.4960398545676284e+01  6.4673666440809185e+01  6.5668412225645213e+01  3.8269884117916213e+01  3.6092879001817600e+01  </DataArray> 
</PointData> 
</Piece>
</UnstructuredGrid>
</VTKFile>