<?xml version="1.0"?>
<VTKFile type="UnstructuredGrid"  version="0.1"  >
<UnstructuredGrid>
<Piece  NumberOfPoints="784" NumberOfCells="1320">
<Points>
<DataArray  type="Float64"  NumberOfComponents="3"  format="ascii">266913.131276 586512.314988 0  266738.13716 587762.325998 0  266363.132677 589012.328643 0  266175.641078 590169.601714 0  265666.575631 591040.7699119999 0  264875.64001 591687.766419 0  264900.636161 591845.049083 0  266088.14152 592012.3229499999 0  265561.959259 592661.17101 0  264288.136855 593037.368683 0  263865.194033 593999.8486949999 0  263850.641856 593236.729596 0  263625.634872 592756.525286 0  262689.574249 593299.848918 0  262475.636737 594003.0907310001 0  261934.554452 594340.929792 0  261725.631329 594932.094409 0  261729.256443 595728.498809 0  262138.136044 595012.330523 0  262288.141035 596262.333669 0  261488.994028 597511.480605 0  261234.15567 598316.338928 0  260815.635063 599014.863821 0  261400.643658 599389.7367680001 0  261322.963374 600022.185065 0  261119.455248 600931.061306 0  261607.436504 601293.0629359999 0  260807.446929 602089.899812 0  260025.642878 602988.868697 0  259613.135827 603937.3854499999 0  259050.643123 604100.987861 0  258411.880065 603988.6335979999 0  257764.357469 604449.872569 0  257971.239668 605320.429125 0  258041.396867 605740.635381 0  257188.143339 606987.394312 0  256038.141198 608112.3554550001 0  254788.141633 609087.4026939999 0  253588.140656 609812.362881 0  252338.135706 609737.4048949999 0  251088.138116 609787.404055 0  249963.12851 610287.399466 0  248613.130524 610462.365857 0  247363.132198 610687.407659 0  246113.130532 610837.411551 0  245832.347438 610918.209918 0  245016.946433 610958.5639439999 0  244313.129646 610762.372259 0  244400.622144 611378.093316 0  243939.669208 612460.8930899999 0  242960.649733 611984.892792 0  242170.381438 611919.647351 0  241888.122919 611112.375656 0  241393.380757 610467.6456149999 0  240594.157528 611306.369822 0  240525.621947 610804.648112 0  240363.123632 610512.3745050001 0  239113.123247 610262.374278 0  239813.12126 609037.412459 0  240588.122952 607812.368199 0  241013.119545 606625.9534560001 0  241454.373249 605724.888025 0  242238.120107 604687.3993 0  243088.121248 603462.362766 0  242860.319451 603007.3932640001 0  241563.116617 603812.361344 0  241778.400913 604327.642217 0  242059.837234 604824.879102 0  241475.620201 604923.2402390001 0  241462.182234 605449.881372 0  240906.219606 605674.888222 0  240241.856192 606891.125066 0  239891.734044 607841.012479 0  239048.653431 608724.889805 0  238118.054545 608974.895967 0  238888.111029 607337.406468 0  239738.119992 606212.362729 0  240288.12044 605687.4075229999 0  240380.212307 604729.521696 0  239347.309632 604603.204501 0  238888.112036 604387.408787 0  237913.11173 604687.401386 0  236784.172023 604499.882783 0  236883.408793 603717.08334 0  236154.933927 603595.565605 0  235688.103943 602912.369264 0  235763.108033 601662.366516 0  236363.110805 600412.35884 0  236738.107995 599162.356577 0  236525.607944 598482.2412899999 0  236138.109208 599362.357613 0  235725.063048 600325.4466510001 0  235091.948926 601408.5220979999 0  235188.10921 600312.366344 0  234375.602405 600833.9674270001 0  234663.109308 599912.358011 0  234138.105122 600062.365644 0  233955.307245 599029.561063 0  233338.103791 598387.401556 0  233988.09795 597862.356384 0  235138.101489 596637.3947750001 0  235563.1039 595387.392428 0  236513.103639 594212.356312 0  237163.10684 592987.3929869999 0  238313.103031 591862.3515540001 0  239513.107028 590812.3512640001 0  240638.102135 589787.387271 0  241463.109549 588587.378486 0  242294.489816 587443.735215 0  242913.101099 586512.341804 0  243544.066915 585474.859604 0  243040.448415 585184.975583 0  242438.10214 585337.38015 0  241313.102353 586562.339499 0  240538.107104 587787.382449 0  240114.641085 588588.939407 0  239388.100256 589437.382238 0  238188.104456 590512.346358 0  236938.100507 591362.349798 0  235813.10453 592537.396388 0  234864.502938 593178.7753880001 0  234463.097651 592862.357267 0  235113.0965 591662.3545979999 0  235713.101522 590412.346099 0  235777.688431 589976.7582779999 0  234943.583145 590706.265132 0  234462.482256 591490.2841159999 0  233801.497784 592112.940187 0  233388.099101 591787.394208 0  234013.093099 590437.393065 0  234776.217248 587148.7548100001 0  235163.093726 586562.3486189999 0  235313.098918 585483.229012 0  235250.59732 584662.298153 0  235588.093896 583337.379493 0  236329.432041 582199.858992 0  237188.096234 581462.3349939999 0  237463.088521 580212.335511 0  238350.592558 579057.652616 0  238591.415797 578574.847681 0  238313.094106 577612.328905 0  239229.696732 577695.769664 0  240195.161018 577513.008613 0  240614.996733 577149.8518770001 0  240663.091715 577412.332622 0  240288.092486 578662.334085 0  239942.357258 579508.095811 0  240438.100019 580212.3334220001 0  241338.095553 580387.375355 0  241238.099828 579137.369157 0  241788.097003 577887.370889 0  241983.554649 577241.9220939999 0  242054.178239 576927.8105029999 0  242588.100699 575737.366175 0  243149.324833 574898.583978 0  243695.278626 573919.517981 0  244268.494418 573724.8454239999 0  244995.134063 573930.2767810001 0  245417.314363 573391.601898 0  243450.599125 571859.479773 0  245776.797908 572599.8353060001 0  246779.639852 572973.285167 0  248034.741935 573186.082054 0  249413.10651 573162.3205520001 0  250496.922226 573271.1521899999 0  251613.105126 573237.3551319999 0  252421.824577 572846.032906 0  253256.245022 572580.4733130001 0  253739.471933 571960.9547369999 0  254174.511864 572149.8346569999 0  254484.944333 571684.194807 0  254384.108649 570891.346712 0  254344.002752 570218.26407 0  255025.609604 570829.0294979999 0  255715.005913 570489.264586 0  256218.846343 570774.828355 0  256834.349083 570508.5908 0  257390.092515 570014.308325 0  257624.431042 568493.478911 0  259355.811717 569380.021819 0  260033.372814 569617.066669 0  262679.741751 570320.699974 0  263289.115756 569524.817815 0  263463.114338 570512.301061 0  264638.198419 570687.3443539999 0  265058.220065 571334.378467 0  265447.561421 572077.90485 0  265488.125257 573137.3446020001 0  265131.937715 573963.293593 0  265432.389648 575093.068786 0  265638.122314 576338.029955 0  265750.630817 577371.8281319999 0  265738.570663 578561.9098850001 0  265875.630866 579139.630549 0  266213.129247 579862.311842 0  266563.130472 581112.314509 0  266238.135356 582362.310259 0  265938.12863 583612.320897 0  265738.131342 584762.3210189999 0  266875.638633 585365.358768 0  264018.7239399826 593650.4646671159 0  262236.3944351029 595831.1252656333 0  241846.246678 605206.1436625 0  240200.622106 608424.8903290001 0  240943.4862974102 610939.7757535663 0  236550.6094 599787.3577085 0  238528.1212051503 608102.9081793013 0  244413.4891967989 572609.5960859474 0  236382.0474488751 598808.3067022427 0  235369.601910944 600933.5380148316 0  235413.099011 591037.3503485 0  235446.2251831186 590266.6553871984 0  240475.5921005 578037.3333535 0  240413.173949154 577324.4280286073 0  240574.037899 606283.0066440001 0  263857.9179445 593618.2891454998 0  264153.4303974913 593343.916675058 0  242042.1833925 604946.7714812499 0  241650.3099635 605465.51584375 0  244613.6985165 572229.6575395 0  236631.8579695 598822.2989335 0  235140.029068 600860.444221 0  241767.7287175 604874.0596705 0  242140.15174975 604817.0853906251 0  234781.8558075 600573.1668855001 0  242091.167571125 604881.9284359375 0  234519.3558565 600373.162719 0  254604.8337712102 583989.0014118921 0  250699.5846056537 594617.3297041012 0  250540.4796469513 602258.2940568649 0  248483.7490186612 580334.7345534252 0  258549.2190328319 577893.951823392 0  257067.0067473103 590016.5327808241 0  243285.0921999099 596333.923437875 0  248333.1386145258 589098.0389905117 0  256142.8445072741 595883.3911551933 0  260245.1368072523 583315.2785712298 0  253472.3380211276 578932.2908163272 0  246432.3347504817 599884.5019511909 0  261555.9240922556 588041.186709004 0  247293.1100123104 605823.8307887657 0  246458.2798550911 593168.8646574575 0  252840.0183145193 588226.5564648228 0  249828.2874404451 584740.7888937403 0  255409.5660975206 600458.8956828594 0  260819.9733392385 574219.403683011 0  252584.2262054711 605722.6603825617 0  254049.8830611471 592547.4852571967 0  250015.4356193061 598425.2225922942 0  245872.072249477 577604.9761853142 0  262002.1583249522 579753.4663046852 0  257732.6630933878 586227.970805314 0  250242.5556457866 577017.3316409125 0  244921.6453001869 581816.6358421432 0  256520.3890639471 580904.824006648 0  240779.0970645865 599524.6679555867 0  257100.1829219198 574459.5922545703 0  239912.2630002034 595231.1172704464 0  244703.0875078634 590068.6945953515 0  242549.5490268674 592874.3693043783 0  251586.0465921376 581796.2215047925 0  246643.189997516 596527.447801719 0  251049.7658069622 591057.6752245198 0  253014.5731561695 596998.6601086652 0  238680.2197353724 584542.2309791476 0  259715.365803504 591937.1938619445 0  254097.157218761 575731.4494927844 0  246806.6408589328 586139.0877599345 0  246136.1179750556 602959.471719323 0  253520.7033332401 602835.180253843 0  244125.4295793909 607538.9817227355 0  252546.8895354472 599881.3279113505 0  258289.0983523553 600397.640191779 0  247518.7952199645 583037.3718217331 0  263140.3959879661 582529.2228421422 0  262894.8586894067 585442.3590432997 0  256968.6320599076 593040.7691844478 0  243573.0187527719 600218.2795730785 0  258888.5766127351 595139.7745218446 0  262588.7569809347 576734.8569237856 0  259318.4257992262 580601.2540325444 0  249963.3812725965 607065.7205847671 0  257494.5307999607 583482.5893534871 0  258906.4757205145 572278.8089438241 0  237751.446593475 587300.5805003279 0  255142.4708720699 604956.7580261135 0  258485.4978753244 597756.9250383095 0  255516.7820591553 587791.39641967 0  239758.4692108706 601926.8203218657 0  255873.0092222999 577739.5085867504
[...]
<PointData  Scalars="f_24704-1"> 
<DataArray  type="Float64"  Name="f_24704-1"  format="ascii">4.0761442950177390e+01  4.2122785027942243e+01  4.4180074467755247e+01  4.6200811648336632e+01  4.7678968508116412e+01  4.9599863675274371e+01  5.0237694386705520e+01  5.0280304116695440e+01  5.0579907339069131e+01  5.1966105412901868e+01  5.2947275918052490e+01  5.2423529115860916e+01  5.2099138969639682e+01  5.4213072694655565e+01  5.5476240027183287e+01  5.6577794453620847e+01  5.7898246762735511e+01  5.9117028133824931e+01  5.8602793159576791e+01  5.9504993164164148e+01  6.2114185951988134e+01  6.3820020280763046e+01  6.5658541632346996e+01  6.6521559854653589e+01  6.7124166645116645e+01  6.8656829885003830e+01  6.9046401910018901e+01  7.0003399351493940e+01  7.1583745527996015e+01  7.2469234202148741e+01  7.2635682902392332e+01  7.2930957095458396e+01  7.3783128912075540e+01  7.4568374263408174e+01  7.4732559330003951e+01  7.5703577337012547e+01  7.7040715407298961e+01  7.8463764172853828e+01  7.9604916353681887e+01  8.0391706968766485e+01  8.1575560297114819e+01  8.2719526292420284e+01  8.3717874575520625e+01  8.4572304468216487e+01  8.5332622350115585e+01  8.5483406773846610e+01  8.5841958029945857e+01  8.6303434609608601e+01  8.6735486887505360e+01  8.7006377403356581e+01  8.7110579758674277e+01  8.7203575471171519e+01  8.7131419973995776e+01  8.7169776433918841e+01  8.7502237612908246e+01  8.7463577912912470e+01  8.7450280388580438e+01  8.7605362432559417e+01  8.7209004117014146e+01  8.6408864856381783e+01  8.5606272110667916e+01  8.4884902861959944e+01  8.3829627485123609e+01  8.2172731125903738e+01  8.1889301538480609e+01  8.3900204251461915e+01  8.4432730979412398e+01  8.4541334966166815e+01  8.4756197066212110e+01  8.5028751100800335e+01  8.5346824830776455e+01  8.6370901081795552e+01  8.6839991066282394e+01  8.7262301845867555e+01  8.7389390503948846e+01  8.6892268483451232e+01  8.6203778115461006e+01  8.5635950144275540e+01  8.5026177804619550e+01  8.5451652053599020e+01  8.5771586323671926e+01  8.6218432339576708e+01  8.6364586631644102e+01  8.6344297685669929e+01  8.6427188801744336e+01  8.6413921943230889e+01  8.6095931870661119e+01  8.5206325690890310e+01  8.3830968241551290e+01  8.3684287690906771e+01  8.5123753786113042e+01  8.5837504171789192e+01  8.6088076382164544e+01  8.5933303771637270e+01  8.6127586045975420e+01  8.5941659295933945e+01  8.5986140015137551e+01  8.5800159448738356e+01  8.5731649860043959e+01  8.5402558399901267e+01  8.3111873344883790e+01  8.0652237205188996e+01  7.7292609342596421e+01  7.4101399464031275e+01  7.0950611689273828e+01  6.8710205988049580e+01  6.7166627642567690e+01  6.5761863960006934e+01  6.4291870016450247e+01  6.2925861864969150e+01  6.1389105379346248e+01  6.1246322153134678e+01  6.1990509636785191e+01  6.4224443834290796e+01  6.5821343108978340e+01  6.6577616136788706e+01  6.7455223360148537e+01  6.9065224878810994e+01  7.1493895163789432e+01  7.5132270795229104e+01  7.6602743727398931e+01  7.6625090337127403e+01  7.4564039979317116e+01  7.1586705831262250e+01  7.1143968033032422e+01  7.3672784316376223e+01  7.5657788158589142e+01  7.6539370220287182e+01  7.6570723952703872e+01  7.4218400959632405e+01  6.9119132919791369e+01  6.8414091895380736e+01  6.7441181221710153e+01  6.6934045190875779e+01  6.5990036053365657e+01  6.4722420120163079e+01  6.3344473657240371e+01  6.2080939482871415e+01  6.0797428714965740e+01  6.0220192024507625e+01  5.9903716140456922e+01  5.9635009857077826e+01  5.8941460835720058e+01  5.8739062522799898e+01  5.8763390526497815e+01  5.9520461442567871e+01  6.0319087728841190e+01  6.0470708811652706e+01  5.9577285720171531e+01  5.8514025045866312e+01  5.7308569811605864e+01  5.6605661323114695e+01  5.6287661117466456e+01  5.4743315799945613e+01  5.3246886238569346e+01  5.1709655121844278e+01  5.1243383699933730e+01  5.0153122903603141e+01  4.8716867064840116e+01  4.9245927237016474e+01  4.8201391773024966e+01  4.7215322443828448e+01  4.5489860601124803e+01  4.3425397487605018e+01  4.2076784286377510e+01  4.0616573988084212e+01  3.9346785380923144e+01  3.8072041832279830e+01  3.7285149050917859e+01  3.6841799644014920e+01  3.5787680818397639e+01  3.5026860658078917e+01  3.4872131524666656e+01  3.4760283573039601e+01  3.4032372346939830e+01  3.3582548648551388e+01  3.2597942992103278e+01  3.3994909768835605e+01  5.3453565975066844e+01  4.0984349955630371e+01  3.5446899283160512e+01  3.2830763582117228e+01  3.2323716743762652e+01  3.3623126003839864e+01  3.2285939120225159e+01  3.1504363823109262e+01  3.1271943558025505e+01  3.1659977862775399e+01  3.2283026797783215e+01  3.3012419610196815e+01  3.3800155753814735e+01  3.4742816818614649e+01  3.5999890327863611e+01  3.6291725714096664e+01  3.6483229880646029e+01  3.7746867769489697e+01  4.0138993290570532e+01  4.1031918060946481e+01  4.0162986956984582e+01  4.0117165707364450e+01  5.2812536399250341e+01  5.9126953873103318e+01  8.4389065324010303e+01  8.6842132599910187e+01  8.7451548426700015e+01  8.4547677814983487e+01  8.7220665862262805e+01  4.8904397273057576e+01  8.4413490287634900e+01  8.6037597065223125e+01  7.3009178291352157e+01  7.2102185730566703e+01  5.9059996449681549e+01  5.8781258951530923e+01  8.5933518578586160e+01  5.2813347355592626e+01  5.2500581963832040e+01  8.4117170369353175e+01  8.4649269933294207e+01  4.8902573379592411e+01  8.3535974458845843e+01  8.6037047572545731e+01  8.4581945636510753e+01  8.3976326816967841e+01  8.6074063629606101e+01  8.4047258023510196e+01  8.6074118678191994e+01  4.9683462835970708e+01  6.7128485306832189e+01  7.5348974991763569e+01  5.2440604825033297e+01  3.7828759776389276e+01  5.5361296461248109e+01  7.4358661729747112e+01  6.1607751192521384e+01  6.3918237798327077e+01  4.1954746558326747e+01  4.4974990714114959e+01  7.6091683353820116e+01  4.6164870828458923e+01  8.1241990493222374e+01  6.7873871120346337e+01  5.6925258925252031e+01  5.6588836233780782e+01  7.0021857291367482e+01  3.3677342544777872e+01  7.7209423428427584e+01  6.1639035111669102e+01  7.2145842212754005e+01  5.2360011875192122e+01  3.7629046775043300e+01  4.8637309764475390e+01  4.5630909191085181e+01  5.7731061405370241e+01  4.3292104659305579e+01  8.0350039161880645e+01  3.6608115964205751e+01  7.4763225202184302e+01  6.6273452318059825e+01  6.9227382317585111e+01  5.0332893719955266e+01  7.2142605865509097e+01  6.2378747366403204e+01  6.8391057344301487e+01  6.4673218044928390e+01  5.5559490892017003e+01  3.9371009813109367e+01  5.9486474955565967e+01  7.9304106176094962e+01  7.4012866478030716e+01  8.4790068786181251e+01  7.1594799023893017e+01  6.9135667331484626e+01  5.5924959723490772e+01  3.9581372973554046e+01  4.1069824719948059e+01  5.9849953061377256e+01  7.8345222866118405e+01  6.0302010607021337e+01  3.5032506086798733e+01  3.9829650946491945e+01  8.0463424319089668e+01  4.5307496871126745e+01  3.1317295652211641e+01  6.7133725721067506e+01  7.5128221001656840e+01  6.4682687154672223e+01  5.3334873703924302e+01  8.5102144290842219e+01  3.9854211143991762e+01  5.0304063539249917e+01  6.0425996578556216e+01  6.5569831383816492e+01  5.6344527073544576e+01  4.7103320925501919e+01  4.3226593082438228e+01  5.8046626154047210e+01  4.8293345914645528e+01  4.7823521256864659e+01  4.4198431119652909e+01  5.0115804895615753e+01  8.3827855390299703e+01  7.7741435901269028e+01  5.2759377563054095e+01  8.2430256229450151e+01  7.5120452827750583e+01  7.5552944791240051e+01  7.9757696977282180e+01  6.2322469896001515e+01  5.8650873162507011e+01  6.7542184879885198e+01  7.1834570670344675e+01  5.8051708202130783e+01  7.7890856572250982e+01  5.3017041419470488e+01  6.5180614561375165e+01  3.2128873467017947e+01  5.0808016977669119e+01  6.8911847045977780e+01  7.6545597388169114e+01  6.5973984064274021e+01  7.0191465297434021e+01  6.2552710150346222e+01  7.0554968158601739e+01  3.6365236613072952e+01  5.5022989195517958e+01  5.2943274958876103e+01  7.9099618156432072e+01  6.8485329219587825e+01  3.7745552457257908e+01  7.8591349766002509e+01  6.3542159987881973e+01  8.3893594942238849e+01  3.3175717881304635e+01  8.4042594526844297e+01  8.3990429893196776e+01  5.5109948433911370e+01  5.0614771884249571e+01  8.4076218729642065e+01  8.5117642308500635e+01  8.2254640223028659e+01  8.4675424304754358e+01  7.1175002278272331e+01  3.5983512770073034e+01  8.0166034924199408e+01  7.5094641369305137e+01  5.5990018445935164e+01  5.0199374091487705e+01  4.6634537805988757e+01  8.4772729682954790e+01  8.4010675201486222e+01  5.7844602255369338e+01  8.5283543619096832e+01  8.3101034266124358e+01  8.3547141436180866e+01  8.5348143910187375e+01  5.9911445559956135e+01  4.8707432047956786e+01  7.0428479910895618e+01  3.3996350533495743e+01  4.8480576768686532e+01  3.7355693676156413e+01  6.8528936782109355e+01  8.6564713288674838e+01  6.6229901237198604e+01  7.2514350428274085e+01  8.2863866730362815e+01  6.0974244051033352e+01  3.0280491906381457e+01  7.1596448263734729e+01  3.9650705869726586e+01  5.1896967385835396e+01  8.4373186728250644e+01  8.2428235768348443e+01  6.1427638746340101e+01  8.6575560759256120e+01  4.4117390640113776e+01  8.4948194241362643e+01  6.3248577160948074e+01  3.2262741778551479e+01  3.6143993988536359e+01  3.7270739903595647e+01  7.2157488898942518e+01  8.1218022144760980e+01  8.0385953536301884e+01  6.8112426624865762e+01  8.4515815484315809e+01  5.9361156582166593e+01  4.8612244827805142e+01  4.8591178304603581e+01  3.2075526395708913e+01  8.4081899270803888e+01  8.4254565923466018e+01  8.4319099408094019e+01  7.4810091923325345e+01  8.0914061747396744e+01  8.4469928273429133e+01  8.2909223082612456e+01  6.6420960244615529e+01  8.7358890417018415e+01  8.7253130896897162e+01  6.0934304204772033e+01  3.5182533063338134e+01  6.0398646145428700e+01  8.1394649086454820e+01  5.5483601995453093e+01  6.4211922700062615e+01  8.6842347880661691e+01  6.2485405756590566e+01  7.2803730171613196e+01  4.0697378168199137e+01  5.6311135922998588e+01  5.5561219233302758e+01  5.6875268661210285e+01  8.5408506043755921e+01  5.0035576796810737e+01  5.1073683272329880e+01  4.8980968398526372e+01  5.0920875171714506e+01  4.7001604909439450e+01  3.2807630490080761e+01  3.0784558726457362e+01  5.1790811005046677e+01  5.4820276476199666e+01  7.6104523244296132e+01  7.5973519808630769e+01  8.7060296038882555e+01  6.6539168064674101e+01  6.4682524378825391e+01  6.0555993609600506e+01  6.0175359161097006e+01  6.0646952776303735e+01  6.1553755649708975e+01  6.0693127097136014e+01  6.1195279731855038e+01  6.3124137017189710e+01  6.1463142595585403e+01  6.2139337519413552e+01  6.4311934476602971e+01  6.3183209969486697e+01  5.8501520812074752e+01  6.0048831698706287e+01  4.4417415861553323e+01  4.6342023201024439e+01  4.4545541214335948e+01  4.2747740687778844e+01  4.3532604281963778e+01  4.1394050608265303e+01  4.2868688338689857e+01  4.2191116677933763e+01  3.8856633126937226e+01  3.7647380296601398e+01  3.3767720096361217e+01  3.4233087552670987e+01  3.4290396977990035e+01  3.5421984611959580e+01  3.4871812171045754e+01  3.6189058751912405e+01  3.6542985713475097e+01  3.5672325330474088e+01  3.6371336588711848e+01  3.6625995718346132e+01  3.7095908193926952e+01  3.6618935447655055e+01  3.7635044958779645e+01  4.0855605108382576e+01  3.8916014410419187e+01  4.9558557882104445e+01  4.6517188485736398e+01  4.7570489130850540e+01  5.1498952905666293e+01  6.9982754288753569e+01  6.7862255860765060e+01  6.6311615946121975e+01  6.8124623004747491e+01  7.3545457618865811e+01  7.6544572615803872e+01  7.5313050132873812e+01  7.6613019776557806e+01  5.4962801353671239e+01  5.0265860114229177e+01  5.1848726806521988e+01  5.4338457294294074e+01  3.7920706311476337e+01  3.9540286588983456e+01  3.7314252409480822e+01  3.8496159554003988e+01  3.8085919167781668e+01  3.7601400572908943e+01  5.5299555596947563e+01  5.8390476512458463e+01  5.4182571971570248e+01  5.6672671393070978e+01  5.2714783214581601e+01  7.4989937731377296e+01  7.2407194572370130e+01  6.2171610642071244e+01  6.0487398487783729e+01  6.3704348922915685e+01  5.9852884351068177e+01  6.3396868467141161e+01  6.2039773521354228e+01  6.2967511662954742e+01  6.6236498826555476e+01  6.4626464945946893e+01  3.9402077199258699e+01  4.0197747341143398e+01  4.1417930488983643e+01  4.1066650910840494e+01  4.4504967736919205e+01  4.4001802050608937e+01  4.8031725582707722e+01  4.1679951846823776e+01  4.2224446463180115e+01  4.6135070919230259e+01  4.6957056164323866e+01  7.4335910948703230e+01  7.7761701892738074e+01  7.6146988670956929e+01  7.7975039364635549e+01  8.0297949540784884e+01  6.9728056934072640e+01  6.7248945837316583e+01  6.8865579784180795e+01  6.8422970678904917e+01  5.5146723858304739e+01  5.7905969073888443e+01  5.7322175054220381e+01  5.4669984438453547e+01  7.2134161954311651e+01  7.0368430811214594e+01  6.9579307925557842e+01  6.8519364009524523e+01  3.5106405400852310e+01  3.3765212729144189e+01  6.1702417188870839e+01  6.1179633376646365e+01  5.9882488845648830e+01  7.2040477334082254e+01  7.0452934679810184e+01  7.3759756393752440e+01  7.0833091456352975e+01  5.4387559678288987e+01  5.0336663821535680e+01  5.1460933943765923e+01  5.2930337522959384e+01  5.0651032672887240e+01  5.2293400209517280e+01  3.8235495453102111e+01  3.6884297509013379e+01  3.8594979082960272e+01  3.7096347095739553e+01  3.7643429657249186e+01  3.7732355446414992e+01  4.6981501609186424e+01  5.1219746477218337e+01  4.9289017101200045e+01  5.1464372812783324e+01  4.1905873624514868e+01  4.6879536740834958e+01  4.6686214649814360e+01  4.8143541385113380e+01  4.2420371580819513e+01  4.4811521505920084e+01  5.8259700909416573e+01  5.8947349598319803e+01  5.6713644399562092e+01  5.7651677315754853e+01  4.1315515219873895e+01  4.4355425452507689e+01  4.1279343342780429e+01  4.5265045967840557e+01  3.8228187441683716e+01  3.4671812854500779e+01  3.8264413130605533e+01  3.6447400866464847e+01  3.6286798927456047e+01  3.5388162148085556e+01  3.7152610438097874e+01  6.6902537005259845e+01  6.4005724961956602e+01  6.8059456907208357e+01  6.6268517826785128e+01  6.9858859883537306e+01  4.8799412114867941e+01  4.9390995338300833e+01  7.0358549767146073e+01  6.4148885685486079e+01  6.0416026744129390e+01  6.0106171884390989e+01  6.2885271140825374e+01  7.0079834953046785e+01  6.7958664717884886e+01  6.3527387567186544e+01  6.3616107464170796e+01  5.7518788212017775e+01  5.2702620008159194e+01  4.0453202822502988e+01  3.8993039988870173e+01  3.7972428922738494e+01  5.8815422828563655e+01  6.1050437910986489e+01  7.7427537642928613e+01  7.8594880657971515e+01  7.2747326791950769e+01  7.5820324545164951e+01  7.2829319613056754e+01  7.3392073472681844e+01  6.9307417950004819e+01  6.7898153011723650e+01  5.8370397180636580e+01  3.8626590729058556e+01  5.9559394061332739e+01  5.8544145168867381e+01  3.5264121711018362e+01  3.6857161038551169e+01  3.5221277333625217e+01  4.2555674775170012e+01  4.4858469456306793e+01  5.5566129354021953e+01  5.2006173505998916e+01  5.3189743991795581e+01  5.0197005803674372e+01  6.0102841466284772e+01  6.0668725315641900e+01  6.0708090636081586e+01  6.1392895530207085e+01  6.5287736781059138e+01  6.4730459525502098e+01  5.5145351628945726e+01  4.9907997050251815e+01  4.9394911909263328e+01  5.0661347118583670e+01  4.9087854204171471e+01  4.5893743634977604e+01  4.7027107446724386e+01  5.5842460107668856e+01  5.2834755421920761e+01  7.6670292810167595e+01  5.5472582679453673e+01  5.2490245715242963e+01  6.3975956537580011e+01  6.8441255625209749e+01  6.8812217830235198e+01  6.7418311472742985e+01  3.7560540888565491e+01  3.3969136259770799e+01  3.6775264398894883e+01  6.0451135730279418e+01  3.6678412260035536e+01  6.1647189149858733e+01  4.2036263002741727e+01  3.8104657893590264e+01  6.1716082141190348e+01  5.0642541147253205e+01  6.9123303682077193e+01  3.7954591170880519e+01  3.8305756301506371e+01  3.7551075405728426e+01  3.7850953451642731e+01  3.7411477792130576e+01  6.2730660500150833e+01  4.4905500111373307e+01  4.6866657896124202e+01  4.6188793515355208e+01  7.6995132034567376e+01  5.9934681425548540e+01  5.6076702955438201e+01  5.5726301676490934e+01  5.5984540916312895e+01  3.5024231445006990e+01  7.1125265190515293e+01  7.1541027611551158e+01  3.8361777656491014e+01  3.7870154343523588e+01  4.9174652729419030e+01  5.0140262961405043e+01  4.3638776641327709e+01  5.8804696195618327e+01  6.2406383697373442e+01  6.3346487295196020e+01  6.1336052041049427e+01  6.3583686542946161e+01  4.0417920604801004e+01  3.8830115835650588e+01  3.9016124208770592e+01  3.8630286305616501e+01  7.0451140177951174e+01  3.9149005788151051e+01  4.0503678476122595e+01  4.1165714500666695e+01  5.3710285818164294e+01  5.4218476604705955e+01  5.4400644954351918e+01  5.2677338621107538e+01  4.1137673153990356e+01  3.8927466098570008e+01  4.0291727231165886e+01  5.1109816080441568e+01  7.5070330897859023e+01  7.5950858605441866e+01  7.6628182415835639e+01  6.2496876709324212e+01  6.8364612277063443e+01  5.4175243000743905e+01  5.1456642108040484e+01  5.0232096266310513e+01  5.1903475384403556e+01  6.7443211306252408e+01  6.2275579876663073e+01  6.3069648116088914e+01  3.7421440180079266e+01  3.7142533507429938e+01  3.6494719807865714e+01  5.3594745466615542e+01  5.6697168935862024e+01  5.7454868917066598e+01  5.3381555993455329e+01  6.8657210944139081e+01  3.6709439612104667e+01  3.7428234490235255e+01  3.7185873991088030e+01  6.1529124692853202e+01  6.1141263870127467e+01  6.1289978931314081e+01  4.3318116020664270e+01  4.4446520201692941e+01  4.4975315357622527e+01  3.7609720628935108e+01  3.5491364385299491e+01  3.6058602741701932e+01  6.2279722756184604e+01  6.3368883398600609e+01  6.2788307620997969e+01  6.1922145519924157e+01  6.2051137532100299e+01  6.2090471184111415e+01  6.1880292386033197e+01  4.5164414578713512e+01  3.6180329353424703e+01  5.0580888602823947e+01  7.0438718590079603e+01  5.2806975703585813e+01  5.2357933552107966e+01  3.7777633258536142e+01  3.8706737923433600e+01  3.8631916025237402e+01  3.9657186268048505e+01  3.9329209441023565e+01  3.8066381847578718e+01  5.3553918619119372e+01  5.3130472783133889e+01  5.2381251433509419e+01  6.3296369151323049e+01  6.2918997631374673e+01  3.8711629363876881e+01  3.9156646860090525e+01  4.2847902705542616e+01  4.2942932909339348e+01  4.7678808437838015e+01  4.1482495212629743e+01  4.1758678951480711e+01  4.1285993414103871e+01  4.8251552767537532e+01  7.6902335099247423e+01  5.5405415394166880e+01  5.6697815913535734e+01  5.5019093151339696e+01  6.9292427313501250e+01  6.9756328977323605e+01  6.8759842166481036e+01  5.2127864770303361e+01  5.4035028161504322e+01  5.2543125089599748e+01  4.5323438780789409e+01  5.8758791877035804e+01  5.6084556263803663e+01  3.9390755749688310e+01  3.8158079236760543e+01  6.7841021262939961e+01  6.7912948495044560e+01  6.8499201089084522e+01  3.8346255791093149e+01  3.6844128468936830e+01  </DataArray> 
</PointData> 
</Piece>
</UnstructuredGrid>
</VTKFile>