<?xml version="1.0"?>
<VTKFile type="UnstructuredGrid"  version="0.1"  >
<UnstructuredGrid>
<Piece  NumberOfPoints="784" NumberOfCells="1320">
<Points>
<DataArray  type="Float64"  NumberOfComponents="3"  format="ascii">266913.131276 586512.314988 0  266738.13716 587762.325998 0  266363.132677 589012.328643 0  266175.641078 590169.601714 0  265666.575631 591040.7699119999 0  264875.64001 591687.766419 0  264900.636161 591845.049083 0  266088.14152 592012.3229499999 0  265561.959259 592661.17101 0  264288.136855 593037.368683 0  263865.194033 593999.8486949999 0  263850.641856 593236.729596 0  263625.634872 592756.525286 0  262689.574249 593299.848918 0  262475.636737 594003.0907310001 0  261934.554452 594340.929792 0  261725.631329 594932.094409 0  261729.256443 595728.498809 0  262138.136044 595012.330523 0  262288.141035 596262.333669 0  261488.994028 597511.480605 0  261234.15567 598316.338928 0  260815.635063 599014.863821 0  261400.643658 599389.7367680001 0  261322.963374 600022.185065 0  261119.455248 600931.061306 0  261607.436504 601293.0629359999 0  260807.446929 602089.899812 0  260025.642878 602988.868697 0  259613.135827 603937.3854499999 0  259050.643123 604100.987861 0  258411.880065 603988.6335979999 0  257764.357469 604449.872569 0  257971.239668 605320.429125 0  258041.396867 605740.635381 0  257188.143339 606987.394312 0  256038.141198 608112.3554550001 0  254788.141633 609087.4026939999 0  253588.140656 609812.362881 0  252338.135706 609737.4048949999 0  251088.138116 609787.404055 0  249963.12851 610287.399466 0  248613.130524 610462.365857 0  247363.132198 610687.407659 0  246113.130532 610837.411551 0  245832.347438 610918.209918 0  245016.946433 610958.5639439999 0  244313.129646 610762.372259 0  244400.622144 611378.093316 0  243939.669208 612460.8930899999 0  242960.649733 611984.892792 0  242170.381438 611919.647351 0  241888.122919 611112.375656 0  241393.380757 610467.6456149999 0  240594.157528 611306.369822 0  240525.621947 610804.648112 0  240363.123632 610512.3745050001 0  239113.123247 610262.374278 0  239813.12126 609037.412459 0  240588.122952 607812.368199 0  241013.119545 606625.9534560001 0  241454.373249 605724.888025 0  242238.120107 604687.3993 0  243088.121248 603462.362766 0  242860.319451 603007.3932640001 0  241563.116617 603812.361344 0  241778.400913 604327.642217 0  242059.837234 604824.879102 0  241475.620201 604923.2402390001 0  241462.182234 605449.881372 0  240906.219606 605674.888222 0  240241.856192 606891.125066 0  239891.734044 607841.012479 0  239048.653431 608724.889805 0  238118.054545 608974.895967 0  238888.111029 607337.406468 0  239738.119992 606212.362729 0  240288.12044 605687.4075229999 0  240380.212307 604729.521696 0  239347.309632 604603.204501 0  238888.112036 604387.408787 0  237913.11173 604687.401386 0  236784.172023 604499.882783 0  236883.408793 603717.08334 0  236154.933927 603595.565605 0  235688.103943 602912.369264 0  235763.108033 601662.366516 0  236363.110805 600412.35884 0  236738.107995 599162.356577 0  236525.607944 598482.2412899999 0  236138.109208 599362.357613 0  235725.063048 600325.4466510001 0  235091.948926 601408.5220979999 0  235188.10921 600312.366344 0  234375.602405 600833.9674270001 0  234663.109308 599912.358011 0  234138.105122 600062.365644 0  233955.307245 599029.561063 0  233338.103791 598387.401556 0  233988.09795 597862.356384 0  235138.101489 596637.3947750001 0  235563.1039 595387.392428 0  236513.103639 594212.356312 0  237163.10684 592987.3929869999 0  238313.103031 591862.3515540001 0  239513.107028 590812.3512640001 0  240638.102135 589787.387271 0  241463.109549 588587.378486 0  242294.489816 587443.735215 0  242913.101099 586512.341804 0  243544.066915 585474.859604 0  243040.448415 585184.975583 0  242438.10214 585337.38015 0  241313.102353 586562.339499 0  240538.107104 587787.382449 0  240114.641085 588588.939407 0  239388.100256 589437.382238 0  238188.104456 590512.346358 0  236938.100507 591362.349798 0  235813.10453 592537.396388 0  234864.502938 593178.7753880001 0  234463.097651 592862.357267 0  235113.0965 591662.3545979999 0  235713.101522 590412.346099 0  235777.688431 589976.7582779999 0  234943.583145 590706.265132 0  234462.482256 591490.2841159999 0  233801.497784 592112.940187 0  233388.099101 591787.394208 0  234013.093099 590437.393065 0  234776.217248 587148.7548100001 0  235163.093726 586562.3486189999 0  235313.098918 585483.229012 0  235250.59732 584662.298153 0  235588.093896 583337.379493 0  236329.432041 582199.858992 0  237188.096234 581462.3349939999 0  237463.088521 580212.335511 0  238350.592558 579057.652616 0  238591.415797 578574.847681 0  238313.094106 577612.328905 0  239229.696732 577695.769664 0  240195.161018 577513.008613 0  240614.996733 577149.8518770001 0  240663.091715 577412.332622 0  240288.092486 578662.334085 0  239942.357258 579508.095811 0  240438.100019 580212.3334220001 0  241338.095553 580387.375355 0  241238.099828 579137.369157 0  241788.097003 577887.370889 0  241983.554649 577241.9220939999 0  242054.178239 576927.8105029999 0  242588.100699 575737.366175 0  243149.324833 574898.583978 0  243695.278626 573919.517981 0  244268.494418 573724.8454239999 0  244995.134063 573930.2767810001 0  245417.314363 573391.601898 0  243450.599125 571859.479773 0  245776.797908 572599.8353060001 0  246779.639852 572973.285167 0  248034.741935 573186.082054 0  249413.10651 573162.3205520001 0  250496.922226 573271.1521899999 0  251613.105126 573237.3551319999 0  252421.824577 572846.032906 0  253256.245022 572580.4733130001 0  253739.471933 571960.9547369999 0  254174.511864 572149.8346569999 0  254484.944333 571684.194807 0  254384.108649 570891.346712 0  254344.002752 570218.26407 0  255025.609604 570829.0294979999 0  255715.005913 570489.264586 0  256218.846343 570774.828355 0  256834.349083 570508.5908 0  257390.092515 570014.308325 0  257624.431042 568493.478911 0  259355.811717 569380.021819 0  260033.372814 569617.066669 0  262679.741751 570320.699974 0  263289.115756 569524.817815 0  263463.114338 570512.301061 0  264638.198419 570687.3443539999 0  265058.220065 571334.378467 0  265447.561421 572077.90485 0  265488.125257 573137.3446020001 0  265131.937715 573963.293593 0  265432.389648 575093.068786 0  265638.122314 576338.029955 0  265750.630817 577371.8281319999 0  265738.570663 578561.9098850001 0  265875.630866 579139.630549 0  266213.129247 579862.311842 0  266563.130472 581112.314509 0  266238.135356 582362.310259 0  265938.12863 583612.320897 0  265738.131342 584762.3210189999 0  266875.638633 585365.358768 0  264018.7239399826 593650.4646671159 0  262236.3944351029 595831.1252656333 0  241846.246678 605206.1436625 0  240200.622106 608424.8903290001 0  240943.4862974102 610939.7757535663 0  236550.6094 599787.3577085 0  238528.1212051503 608102.9081793013 0  244413.4891967989 572609.5960859474 0  236382.0474488751 598808.3067022427 0  235369.601910944 600933.5380148316 0  235413.099011 591037.3503485 0  235446.2251831186 590266.6553871984 0  240475.5921005 578037.3333535 0  240413.173949154 577324.4280286073 0  240574.037899 606283.0066440001 0  263857.9179445 593618.2891454998 0  264153.4303974913 593343.916675058 0  242042.1833925 604946.7714812499 0  241650.3099635 605465.51584375 0  244613.6985165 572229.6575395 0  236631.8579695 598822.2989335 0  235140.029068 600860.444221 0  241767.7287175 604874.0596705 0  242140.15174975 604817.0853906251 0  234781.8558075 600573.1668855001 0  242091.167571125 604881.9284359375 0  234519.3558565 600373.162719 0  254604.8337712102 583989.0014118921 0  250699.5846056537 594617.3297041012 0  250540.4796469513 602258.2940568649 0  248483.7490186612 580334.7345534252 0  258549.2190328319 577893.951823392 0  257067.0067473103 590016.5327808241 0  243285.0921999099 596333.923437875 0  248333.1386145258 589098.0389905117 0  256142.8445072741 595883.3911551933 0  260245.1368072523 583315.2785712298 0  253472.3380211276 578932.2908163272 0  246432.3347504817 599884.5019511909 0  261555.9240922556 588041.186709004 0  247293.1100123104 605823.8307887657 0  246458.2798550911 593168.8646574575 0  252840.0183145193 588226.5564648228 0  249828.2874404451 584740.7888937403 0  255409.5660975206 600458.8956828594 0  260819.9733392385 574219.403683011 0  252584.2262054711 605722.6603825617 0  254049.8830611471 592547.4852571967 0  250015.4356193061 598425.2225922942 0  245872.072249477 577604.9761853142 0  262002.1583249522 579753.4663046852 0  257732.6630933878 586227.970805314 0  250242.5556457866 577017.3316409125 0  244921.6453001869 581816.6358421432 0  256520.3890639471 580904.824006648 0  240779.0970645865 599524.6679555867 0  257100.1829219198 574459.5922545703 0  239912.2630002034 595231.1172704464 0  244703.0875078634 590068.6945953515 0  242549.5490268674 592874.3693043783 0  251586.0465921376 581796.2215047925 0  246643.189997516 596527.447801719 0  251049.7658069622 591057.6752245198 0  253014.5731561695 596998.6601086652 0  238680.2197353724 584542.2309791476 0  259715.365803504 591937.1938619445 0  254097.157218761 575731.4494927844 0  246806.6408589328 586139.0877599345 0  246136.1179750556 602959.471719323 0  253520.7033332401 602835.180253843 0  244125.4295793909 607538.9817227355 0  252546.8895354472 599881.3279113505 0  258289.0983523553 600397.640191779 0  247518.7952199645 583037.3718217331 0  263140.3959879661 582529.2228421422 0  262894.8586894067 585442.3590432997 0  256968.6320599076 593040.7691844478 0  243573.0187527719 600218.2795730785 0  258888.5766127351 595139.7745218446 0  262588.7569809347 576734.8569237856 0  259318.4257992262 580601.2540325444 0  249963.3812725965 607065.7205847671 0  257494.5307999607 583482.5893534871 0  258906.4757205145 572278.8089438241 0  237751.446593475 587300.5805003279 0  255142.4708720699 604956.7580261135 0  258485.4978753244 597756.9250383095 0  255516.7820591553 587791.39641967 0  239758.4692108706 601926.8203218657 0  255873.0092222999 577739.5085867504
[...]
<PointData  Scalars="f_32-1"> 
<DataArray  type="Float64"  Name="f_32-1"  format="ascii">3.7697317481020995e+01  3.8917729416478785e+01  4.0808863195793677e+01  4.2519917293526419e+01  4.3762527335476236e+01  4.5639060787066136e+01  4.6255582943283962e+01  4.6589804191675555e+01  4.6666982895302134e+01  4.7452849987756366e+01  4.8000816613094884e+01  4.7740675355989424e+01  4.7759618957906973e+01  4.9934032665947448e+01  5.1193589541347286e+01  5.2259380904645489e+01  5.3574780795144193e+01  5.4861234976780288e+01  5.4736671965597168e+01  5.5218120779760660e+01  5.7345304836218133e+01  5.8960253968454467e+01  6.0724891888428317e+01  6.1643194775619925e+01  6.2154772905672459e+01  6.3411962322444786e+01  6.3772881483774029e+01  6.4499009025470329e+01  6.5812291850359614e+01  6.6565167324339001e+01  6.6720272929101938e+01  6.7074561617327859e+01  6.8019214349772724e+01  6.8830850795797446e+01  6.8987459603152715e+01  6.9829802419594301e+01  7.1010547183385256e+01  7.2269034512361301e+01  7.3188379973543078e+01  7.3926922990453548e+01  7.5039158445966677e+01  7.6084217575502421e+01  7.7009474726892904e+01  7.7811376080643001e+01  7.8519289581165836e+01  7.8666146619647265e+01  7.9039143950413219e+01  7.9528402771138857e+01  7.9930692125713620e+01  8.0125155145911094e+01  8.0171084322914595e+01  8.0213818050208204e+01  8.0189783192994099e+01  8.0264715665251941e+01  8.0484268330175595e+01  8.0466262839961033e+01  8.0468386054482480e+01  8.0562479024876950e+01  8.0318412039782359e+01  7.9618085801857049e+01  7.8858411009554558e+01  7.8233440274282614e+01  7.7251043612118963e+01  7.5652866918961223e+01  7.5452230458291382e+01  7.7444004446820813e+01  7.7957698566630270e+01  7.8073974959811565e+01  7.8220159774220960e+01  7.8423684849753485e+01  7.8688547430757836e+01  7.9664496378869742e+01  8.0058122044492009e+01  8.0313095279848127e+01  8.0374866459088068e+01  8.0089100748842966e+01  7.9504608795193690e+01  7.8950807044717934e+01  7.8390926458562532e+01  7.8772516079573464e+01  7.9069561455018004e+01  7.9461771379501286e+01  7.9566640427107984e+01  7.9565424981636113e+01  7.9613694894780409e+01  7.9593898294258537e+01  7.9336288431336826e+01  7.8518773743621921e+01  7.7153816312993399e+01  7.7013672626573396e+01  7.8391324515112913e+01  7.8989128407008849e+01  7.9166569698862304e+01  7.9037216737171420e+01  7.9129447549260647e+01  7.8988335655558458e+01  7.8985538243061029e+01  7.8809501693617449e+01  7.8736788928979678e+01  7.8465885929126046e+01  7.6365140146572756e+01  7.4130439112203234e+01  7.1229855243007790e+01  6.8443677873749067e+01  6.5770221106925376e+01  6.3631851137642499e+01  6.2030646158376449e+01  6.0635285312779189e+01  5.9098577433525477e+01  5.7731047226039216e+01  5.5989382314994430e+01  5.5259343206726697e+01  5.5527721931495471e+01  5.8366170717706979e+01  6.0514710861901314e+01  6.1343922439315506e+01  6.2197752517723224e+01  6.3728889747918217e+01  6.5926286839319090e+01  6.8705193963165001e+01  6.9561128474587235e+01  6.9571018637907329e+01  6.8295607252048811e+01  6.5977655353504375e+01  6.5593743292044095e+01  6.7653798978609245e+01  6.9091321704943198e+01  6.9603168518000558e+01  6.9609915001400935e+01  6.8048674708600586e+01  6.3579899764730449e+01  6.2924090130999318e+01  6.1972450003074378e+01  6.1459316969054981e+01  6.0622376972939797e+01  5.9549646519303302e+01  5.8277351424789337e+01  5.7074637756857982e+01  5.5968550862186447e+01  5.5486853989776293e+01  5.5209409907791198e+01  5.5074634759628438e+01  5.4696928945401858e+01  5.4588007286076945e+01  5.4601001851180435e+01  5.5070905040258275e+01  5.5712757228539857e+01  5.5820465181241467e+01  5.4776720416232180e+01  5.3651933826952394e+01  5.2565491868577048e+01  5.1894896458001369e+01  5.1601739501413881e+01  5.0208389306038796e+01  4.8919255207905742e+01  4.7732539727824623e+01  4.7368451954775217e+01  4.6294799544090260e+01  4.4942397347129443e+01  4.5148290688581540e+01  4.4540420041047028e+01  4.3755948334951505e+01  4.2003714557096266e+01  3.9972308328075755e+01  3.8709274375281893e+01  3.7279587806828999e+01  3.6071759582262587e+01  3.4891551867195155e+01  3.4234063106367849e+01  3.3809075067632058e+01  3.2864604385203776e+01  3.2289590054967910e+01  3.2220303409543682e+01  3.2112455152588055e+01  3.1590533848830290e+01  3.1140513505418973e+01  3.0124104619973537e+01  2.9316124417837557e+01  3.0046248695297692e+01  2.8451845038460839e+01  2.8484753620095368e+01  3.0221319874047406e+01  3.0255704643593617e+01  3.0462282835538538e+01  3.0072538719957244e+01  2.9574844589893665e+01  2.9182957687661002e+01  2.9289701788521214e+01  2.9798794725564424e+01  3.0501793297730813e+01  3.1198475092160486e+01  3.1929906164650458e+01  3.2886482513962754e+01  3.3276948649822977e+01  3.3737592717277352e+01  3.5000331767978231e+01  3.6861884171313200e+01  3.7717104049920678e+01  3.7256002486941789e+01  3.7186230468869979e+01  4.7933266240492664e+01  5.4976583931522114e+01  7.7787515988767666e+01  8.0023303761496038e+01  8.0455737767480699e+01  7.7864750113670311e+01  8.0289435217183041e+01  4.4943844556646603e+01  7.7714048907924195e+01  7.9132818775808104e+01  6.7128926853176921e+01  6.6373570691713411e+01  5.4767798126196752e+01  5.4610524956350794e+01  7.9241216219232371e+01  4.7933516913695982e+01  4.7772684728911877e+01  7.7531128115081003e+01  7.8026607792305015e+01  4.4942914974790952e+01  7.6868764208067788e+01  7.9132858026401522e+01  7.8099432430239645e+01  7.7394985807575935e+01  7.9099161719899428e+01  7.7464015524544465e+01  7.9098703326000063e+01  4.5068989899834627e+01  6.1179172803808314e+01  6.9287422692387821e+01  4.7149433497801176e+01  3.3227324340488209e+01  4.8823154577127660e+01  6.8637377155762010e+01  5.6217445526855428e+01  5.8833455732463008e+01  3.8402082922526276e+01  3.9381022757535966e+01  6.9070776260605257e+01  4.2550798603941232e+01  7.4945826292078138e+01  6.1884923697657236e+01  5.0043910881563249e+01  5.1755665528410780e+01  6.3126587510759421e+01  3.0812002338775873e+01  7.1253508620606112e+01  5.6373541125729929e+01  6.4862603389080249e+01  4.7657021228170841e+01  3.3590147650822125e+01  4.3218611864648842e+01  4.1232031304564551e+01  5.2616320906122645e+01  3.9236572202434175e+01  7.4199035969108309e+01  3.3484080593753028e+01  6.9143864996135775e+01  5.9554191836511976e+01  6.3936001833456373e+01  4.6279818165869443e+01  6.6322694051479516e+01  5.5565572606473118e+01  6.2198298807080299e+01  5.9257969097797570e+01  5.0966960965671433e+01  3.5163759634330098e+01  5.4701297960897769e+01  7.2909623360078129e+01  6.8132291675210439e+01  7.8145162608480803e+01  6.5172331545104171e+01  6.3566282866497751e+01  5.1409383891805199e+01  3.6077269131038506e+01  3.8012053112202288e+01  5.4428333713950529e+01  7.2248566755802642e+01  5.5679591957243282e+01  3.2087660000818936e+01  3.5679216625401580e+01  7.4183565022014378e+01  4.1321697998663808e+01  2.9274224413994595e+01  6.1893414590532878e+01  6.9300909918349646e+01  5.9649005234242011e+01  4.5692650934532175e+01  7.7969788070089450e+01  3.5035655005587941e+01  4.6467473940903041e+01  5.4684894841343535e+01  5.9853140464080973e+01  5.1551625153019138e+01  4.3015715951645142e+01  3.9910270858597329e+01  5.1765632248253532e+01  4.3862884513589620e+01  4.3707516890564179e+01  4.0735002001009896e+01  4.5284352164296685e+01  7.7281237491128564e+01  7.1733504120192734e+01  4.8458848850433796e+01  7.5985971239482467e+01  6.9271926810286516e+01  6.7700622810034034e+01  7.3573750010249952e+01  5.7198372336704416e+01  5.4003007294696978e+01  6.0771369116362294e+01  6.6141986660867019e+01  5.3045049959052442e+01  7.1552043087739278e+01  4.6590177763171823e+01  5.9953765442429713e+01  2.9733094023775568e+01  4.5212396654916475e+01  6.3124809645532800e+01  7.0745394737376330e+01  5.8827131034975245e+01  6.4833157620481714e+01  5.7279056390709812e+01  6.5352774333398017e+01  3.2623125710948393e+01  4.8696533722106118e+01  4.8724791564415902e+01  7.2912356464813257e+01  6.1820702417689915e+01  3.4247000795931207e+01  7.2502191537636122e+01  5.8180545954452413e+01  7.7119403195761265e+01  3.0514818288010037e+01  7.7494689811013984e+01  7.7433551412043471e+01  5.0586509040178939e+01  4.6590442514589157e+01  7.7499532980501584e+01  7.8424182392871145e+01  7.5821761861320581e+01  7.7882469409005495e+01  6.5381757962348431e+01  3.2992837443400987e+01  7.3866553714461062e+01  6.9290742028598800e+01  5.1397606912315062e+01  4.6204395863928688e+01  4.3149471672384955e+01  7.8159929925467651e+01  7.7430727499578339e+01  5.3379576511891273e+01  7.8520533699985620e+01  7.6533342666014434e+01  7.6987648782892890e+01  7.8576988292454303e+01  5.4640504136797347e+01  4.4792470275794820e+01  6.5013835245918514e+01  3.1236107288977117e+01  4.4806017007656173e+01  3.3554842307040118e+01  6.3213073613215180e+01  7.9800460080372503e+01  6.0984396758252799e+01  6.6589418098171777e+01  7.6277626591985069e+01  5.4708450850760634e+01  2.8245413213375006e+01  6.5869923723015020e+01  3.6024582759510068e+01  4.7832211507139199e+01  7.7650923697127467e+01  7.5835940830877661e+01  5.6673929028581121e+01  7.9806382649191207e+01  4.0084411985438912e+01  7.8154900822013019e+01  5.8367042469393922e+01  2.9713550764903907e+01  3.3150441347886812e+01  3.4025996006100250e+01  6.6345175110601716e+01  7.4804784935129902e+01  7.4145657392962391e+01  6.2755563814268427e+01  7.7914477240518522e+01  5.4790599926505735e+01  4.4774748974479301e+01  4.4766299792897740e+01  2.9604733858924881e+01  7.7498241096497338e+01  7.7661338765409070e+01  7.7726072133617365e+01  6.9044377634876142e+01  7.4557566381100770e+01  7.7815609958975870e+01  7.6383321510863198e+01  6.1160905999061761e+01  8.0403294324968130e+01  8.0348452358491741e+01  5.5870027945070092e+01  3.2069821036627808e+01  5.5692460093096891e+01  7.5012602846932026e+01  5.1145591009721990e+01  5.9092438585909143e+01  8.0002870853308366e+01  5.6296745995140490e+01  6.7094965110196384e+01  3.7401741931846182e+01  5.1647465381971081e+01  5.0936897527550606e+01  5.2200455554189773e+01  7.8578157186428115e+01  4.6052553727012288e+01  4.6888278582986167e+01  4.5142569858538721e+01  4.6769149168471003e+01  4.3309230800610642e+01  3.0079240223414047e+01  2.8519208912591708e+01  4.7775619796106206e+01  5.0336832593004829e+01  6.9287088196111000e+01  6.9202925497852291e+01  8.0204353025182314e+01  6.1231268234802243e+01  5.9419454610023116e+01  5.5644531151651286e+01  5.5121884898764080e+01  5.5208137972215084e+01  5.5260517732060144e+01  5.5078363534159912e+01  5.4984469117746713e+01  5.6778776101491061e+01  5.5068133392015774e+01  5.5561391820393631e+01  5.8477862075021065e+01  5.6864744445538186e+01  5.3607640144170077e+01  5.4973485071749721e+01  4.0890310702836423e+01  4.2501828604716167e+01  4.0789319292285469e+01  3.9336588110174752e+01  3.9842433255062524e+01  3.8037711846500962e+01  3.9205213910172283e+01  3.8585984884739190e+01  3.5544023836984749e+01  3.4447242303628663e+01  3.1095780780998233e+01  3.1545750275759424e+01  3.1509083074934150e+01  3.2410370617094124e+01  3.1909828799918973e+01  3.3097099670408909e+01  3.3167239089920635e+01  3.2426018203001078e+01  3.3506893624266795e+01  3.3322965480353886e+01  3.3992654836553228e+01  3.3498854831478766e+01  3.4625775994930976e+01  3.6979184544301162e+01  3.5548873418767307e+01  4.3409794508174635e+01  4.2535160218562297e+01  4.2966739008138084e+01  4.6046519943209958e+01  6.2368542070152166e+01  6.1591901279087267e+01  6.0661114924850040e+01  6.2041576816474610e+01  6.7554498087543948e+01  7.0549617093070324e+01  6.8585326283509772e+01  7.0312868018856747e+01  4.9586373917123730e+01  4.5636521296912470e+01  4.5985523609380891e+01  4.7771491413460637e+01  3.3722299573842740e+01  3.5174555702478017e+01  3.3496771552438339e+01  3.4170596405922232e+01  3.3564018659664022e+01  3.3129196465403766e+01  5.0162006317077250e+01  5.1842047457051038e+01  4.7064497338126884e+01  4.9888485687583213e+01  4.6974335629879015e+01  6.8996156299717171e+01  6.6469426510306945e+01  5.5555955788624303e+01  5.5448352863363482e+01  5.7567105315683200e+01  5.4721933523084893e+01  5.7513693445468803e+01  5.6568501200525063e+01  5.7840215708365925e+01  6.0626948830804082e+01  5.9509057864070925e+01  3.5157686697072400e+01  3.6582090660390449e+01  3.8178060452504653e+01  3.7177776302030978e+01  3.9705477484744186e+01  3.9240882623351020e+01  4.3285593035028008e+01  3.6602587985541305e+01  3.7089901077033154e+01  4.1341620910463689e+01  4.1714455785978572e+01  6.6853928387050374e+01  7.0833463362397296e+01  6.8057982051858403e+01  7.1493467632197635e+01  7.4017130545235830e+01  6.4305202175688706e+01  6.0309901238398631e+01  6.3254650122918171e+01  6.1740467712467101e+01  4.7567905152647270e+01  5.0904195446759978e+01  5.1517641059655816e+01  4.7700034876718682e+01  6.5837341096275381e+01  6.3448681195717278e+01  6.3489093929445801e+01  6.1332785994438822e+01  3.2057965722677650e+01  3.1178222596268231e+01  5.6284652884364668e+01  5.5315613427019109e+01  5.4265714965912281e+01  6.5365205231232792e+01  6.3392927574648404e+01  6.6551630630581997e+01  6.3525745011577911e+01  4.9507383871624185e+01  4.5967102960155167e+01  4.6288505734394640e+01  4.7761143991509954e+01  4.6468602338734676e+01  4.8041873009585828e+01  3.4202834891692675e+01  3.3323570943634600e+01  3.4250979805756906e+01  3.3332653067944264e+01  3.3756487286037803e+01  3.3731016103245494e+01  4.2217996055288062e+01  4.4194503796128792e+01  4.4015168622201280e+01  4.4215056637566981e+01  3.7342895072715187e+01  4.2388473730260230e+01  4.2397178287119928e+01  4.3468889237559587e+01  3.8135138149121126e+01  4.0556624770177002e+01  5.2384327802513063e+01  5.3852987175428758e+01  5.1810639778661084e+01  5.1163825324641898e+01  3.7268889806565639e+01  4.0574620074911309e+01  3.6577672020791582e+01  4.1145300126009133e+01  3.4376671502877969e+01  3.1818515660200958e+01  3.4261093574229619e+01  3.3067254717601244e+01  3.3230703898882823e+01  3.2469385961724598e+01  3.3821880744784664e+01  5.9047632252529411e+01  5.8344322095764674e+01  6.0656482306794828e+01  6.0489448953427178e+01  6.4410754276985401e+01  4.4700571745326442e+01  4.5147136634538711e+01  6.4679687666518987e+01  5.7645553503909781e+01  5.4545209532151702e+01  5.3929181457607690e+01  5.6896226325029716e+01  6.3406752864606425e+01  6.1539914170284860e+01  5.8140481697662679e+01  5.7840758011538099e+01  5.2597700713423293e+01  4.8204644731441441e+01  3.5498199412595326e+01  3.5288195426774180e+01  3.4484651799180575e+01  5.4165833989393967e+01  5.5958073266288899e+01  6.9984911466773198e+01  7.2129883345522245e+01  6.6601402442373200e+01  6.9967091405868629e+01  6.6925502581370139e+01  6.7084163934223753e+01  6.2260828551732892e+01  6.1717824591517008e+01  5.0768980086790151e+01  3.5067123886306923e+01  5.2948243110050491e+01  5.3875346497389188e+01  3.2196760313103901e+01  3.3116465339917909e+01  3.2156114260589824e+01  3.8793658589931340e+01  4.1084425767560937e+01  4.8433448086513636e+01  4.5218782551720757e+01  4.5711740538071844e+01  4.6184336045826761e+01  5.4440651764982604e+01  5.4603534789609405e+01  5.5277001435375993e+01  5.5222341422780367e+01  5.9324071241538007e+01  5.8901809811137184e+01  4.9994704684793916e+01  4.5872722794288130e+01  4.4471936053700659e+01  4.6387538652816652e+01  4.4490356552898376e+01  4.1779136666534782e+01  4.2999272227114638e+01  5.0851338589388092e+01  4.7814072465621869e+01  6.9536781595775494e+01  4.9679241626630137e+01  4.6656614380518604e+01  5.7795646932504468e+01  6.0252303232665234e+01  6.3149260539715485e+01  6.1479675752867841e+01  3.3900976199874655e+01  3.1204889123589997e+01  3.3620126893595909e+01  5.4682507531058782e+01  3.2957568544915318e+01  5.5165509358338610e+01  3.8126711360710821e+01  3.4773243550000004e+01  5.6052717727338049e+01  4.4629946314434896e+01  6.2215064367225189e+01  3.3488171240088811e+01  3.3781749173697449e+01  3.3211614133795301e+01  3.3290634330268013e+01  3.3214028613133074e+01  5.7047630117627676e+01  3.9454631505189738e+01  4.1428589231159023e+01  4.0532180344484580e+01  6.9333948775494193e+01  5.3511383854903350e+01  4.8791218908477113e+01  4.8743473521980398e+01  4.9578701389746506e+01  3.1938292015568777e+01  6.3423935641349601e+01  6.3964901818865961e+01  3.3997896252929777e+01  3.3718257881060765e+01  4.3110957042049996e+01  4.3567403020838732e+01  3.9174742329084083e+01  5.1989686224595602e+01  5.5343290367489999e+01  5.6533947562957010e+01  5.4522144324142587e+01  5.7170993786396927e+01  3.5992261375132102e+01  3.4722318911845562e+01  3.5142727524182668e+01  3.4825670484845546e+01  6.3657391973971293e+01  3.4889489062512283e+01  3.6418215137163145e+01  3.7224807896474175e+01  4.6283907728487527e+01  4.6534777369626177e+01  4.6902960999307197e+01  4.5324721375560301e+01  3.6054319882730731e+01  3.4469522343779730e+01  3.5346302882844341e+01  4.5306805329607045e+01  6.7180223976922079e+01  6.7765374054096597e+01  6.8666132469960218e+01  5.6858099769162550e+01  6.1303551658639726e+01  4.8004202212086277e+01  4.5567295388092582e+01  4.4840694898118365e+01  4.5982594518048721e+01  5.9478936594511794e+01  5.6828717596430764e+01  5.7483005971145730e+01  3.3200291151524020e+01  3.2976287114331683e+01  3.2815774624675726e+01  4.8062982240609301e+01  4.9958372556713499e+01  4.9696312296691787e+01  4.7481732083525046e+01  6.1050641625135910e+01  3.3062585012344734e+01  3.3389182837156639e+01  3.3297139932414481e+01  5.5006193352027012e+01  5.4807511501608246e+01  5.4849817997431238e+01  3.9185399823374148e+01  4.0296612598759815e+01  4.0888514099600997e+01  3.4129617722644547e+01  3.2254673901930182e+01  3.2615239072108864e+01  5.5816422886262238e+01  5.7232072502455033e+01  5.6412634746046159e+01  5.5690270913905934e+01  5.5668292614686564e+01  5.6132250766728767e+01  5.5318688819177638e+01  4.1199372740685639e+01  3.2685941711414564e+01  4.3820085750197237e+01  6.2860469942713294e+01  4.6804289039551243e+01  4.6305614855567214e+01  3.3368531355891434e+01  3.4101398511200038e+01  3.4365449527636244e+01  3.5450602391602608e+01  3.4693884000413156e+01  3.3832763908736588e+01  4.6947064498089915e+01  4.6024703590968777e+01  4.6063908189423294e+01  5.6379919102793053e+01  5.7176398108259939e+01  3.4464273403619224e+01  3.5232804621748294e+01  3.7789637787716273e+01  3.8256735874766242e+01  4.2570037540323590e+01  3.6671798124357586e+01  3.6791738427161775e+01  3.6115953033499117e+01  4.3591967599785832e+01  6.8900933046329385e+01  4.7935818579369013e+01  4.9657026173175922e+01  4.8643098755448001e+01  6.2093094816302113e+01  6.2696865567971308e+01  6.1527876787185839e+01  4.6957498758289319e+01  4.8803330570996479e+01  4.7095676774752299e+01  4.1142105006229990e+01  5.1014478522234654e+01  5.0421446382529624e+01  3.4912118344761183e+01  3.4394948702359805e+01  5.9847132276188347e+01  5.9599403970118594e+01  6.0445239478783833e+01  3.4816406598302827e+01  3.3056779633567302e+01  </DataArray> 
</PointData> 
</Piece>
</UnstructuredGrid>
</VTKFile>