<?xml version="1.0"?>
<VTKFile type="UnstructuredGrid"  version="0.1"  >
<UnstructuredGrid>
<Piece  NumberOfPoints="784" NumberOfCells="1320">
<Points>
<DataArray  type="Float64"  NumberOfComponents="3"  format="ascii">266913.131276 586512.314988 0  266738.13716 587762.325998 0  266363.132677 589012.328643 0  266175.641078 590169.601714 0  265666.575631 591040.7699119999 0  264875.64001 591687.766419 0  264900.636161 591845.049083 0  266088.14152 592012.3229499999 0  265561.959259 592661.17101 0  264288.136855 593037.368683 0  263865.194033 593999.8486949999 0  263850.641856 593236.729596 0  263625.634872 592756.525286 0  262689.574249 593299.848918 0  262475.636737 594003.0907310001 0  261934.554452 594340.929792 0  261725.631329 594932.094409 0  261729.256443 595728.498809 0  262138.136044 595012.330523 0  262288.141035 596262.333669 0  261488.994028 597511.480605 0  261234.15567 598316.338928 0  260815.635063 599014.863821 0  261400.643658 599389.7367680001 0  261322.963374 600022.185065 0  261119.455248 600931.061306 0  261607.436504 601293.0629359999 0  260807.446929 602089.899812 0  260025.642878 602988.868697 0  259613.135827 603937.3854499999 0  259050.643123 604100.987861 0  258411.880065 603988.6335979999 0  257764.357469 604449.872569 0  257971.239668 605320.429125 0  258041.396867 605740.635381 0  257188.143339 606987.394312 0  256038.141198 608112.3554550001 0  254788.141633 609087.4026939999 0  253588.140656 609812.362881 0  252338.135706 609737.4048949999 0  251088.138116 609787.404055 0  249963.12851 610287.399466 0  248613.130524 610462.365857 0  247363.132198 610687.407659 0  246113.130532 610837.411551 0  245832.347438 610918.209918 0  245016.946433 610958.5639439999 0  244313.129646 610762.372259 0  244400.622144 611378.093316 0  243939.669208 612460.8930899999 0  242960.649733 611984.892792 0  242170.381438 611919.647351 0  241888.122919 611112.375656 0  241393.380757 610467.6456149999 0  240594.157528 611306.369822 0  240525.621947 610804.648112 0  240363.123632 610512.3745050001 0  239113.123247 610262.374278 0  239813.12126 609037.412459 0  240588.122952 607812.368199 0  241013.119545 606625.9534560001 0  241454.373249 605724.888025 0  242238.120107 604687.3993 0  243088.121248 603462.362766 0  242860.319451 603007.3932640001 0  241563.116617 603812.361344 0  241778.400913 604327.642217 0  242059.837234 604824.879102 0  241475.620201 604923.2402390001 0  241462.182234 605449.881372 0  240906.219606 605674.888222 0  240241.856192 606891.125066 0  239891.734044 607841.012479 0  239048.653431 608724.889805 0  238118.054545 608974.895967 0  238888.111029 607337.406468 0  239738.119992 606212.362729 0  240288.12044 605687.4075229999 0  240380.212307 604729.521696 0  239347.309632 604603.204501 0  238888.112036 604387.408787 0  237913.11173 604687.401386 0  236784.172023 604499.882783 0  236883.408793 603717.08334 0  236154.933927 603595.565605 0  235688.103943 602912.369264 0  235763.108033 601662.366516 0  236363.110805 600412.35884 0  236738.107995 599162.356577 0  236525.607944 598482.2412899999 0  236138.109208 599362.357613 0  235725.063048 600325.4466510001 0  235091.948926 601408.5220979999 0  235188.10921 600312.366344 0  234375.602405 600833.9674270001 0  234663.109308 599912.358011 0  234138.105122 600062.365644 0  233955.307245 599029.561063 0  233338.103791 598387.401556 0  233988.09795 597862.356384 0  235138.101489 596637.3947750001 0  235563.1039 595387.392428 0  236513.103639 594212.356312 0  237163.10684 592987.3929869999 0  238313.103031 591862.3515540001 0  239513.107028 590812.3512640001 0  240638.102135 589787.387271 0  241463.109549 588587.378486 0  242294.489816 587443.735215 0  242913.101099 586512.341804 0  243544.066915 585474.859604 0  243040.448415 585184.975583 0  242438.10214 585337.38015 0  241313.102353 586562.339499 0  240538.107104 587787.382449 0  240114.641085 588588.939407 0  239388.100256 589437.382238 0  238188.104456 590512.346358 0  236938.100507 591362.349798 0  235813.10453 592537.396388 0  234864.502938 593178.7753880001 0  234463.097651 592862.357267 0  235113.0965 591662.3545979999 0  235713.101522 590412.346099 0  235777.688431 589976.7582779999 0  234943.583145 590706.265132 0  234462.482256 591490.2841159999 0  233801.497784 592112.940187 0  233388.099101 591787.394208 0  234013.093099 590437.393065 0  234776.217248 587148.7548100001 0  235163.093726 586562.3486189999 0  235313.098918 585483.229012 0  235250.59732 584662.298153 0  235588.093896 583337.379493 0  236329.432041 582199.858992 0  237188.096234 581462.3349939999 0  237463.088521 580212.335511 0  238350.592558 579057.652616 0  238591.415797 578574.847681 0  238313.094106 577612.328905 0  239229.696732 577695.769664 0  240195.161018 577513.008613 0  240614.996733 577149.8518770001 0  240663.091715 577412.332622 0  240288.092486 578662.334085 0  239942.357258 579508.095811 0  240438.100019 580212.3334220001 0  241338.095553 580387.375355 0  241238.099828 579137.369157 0  241788.097003 577887.370889 0  241983.554649 577241.9220939999 0  242054.178239 576927.8105029999 0  242588.100699 575737.366175 0  243149.324833 574898.583978 0  243695.278626 573919.517981 0  244268.494418 573724.8454239999 0  244995.134063 573930.2767810001 0  245417.314363 573391.601898 0  243450.599125 571859.479773 0  245776.797908 572599.8353060001 0  246779.639852 572973.285167 0  248034.741935 573186.082054 0  249413.10651 573162.3205520001 0  250496.922226 573271.1521899999 0  251613.105126 573237.3551319999 0  252421.824577 572846.032906 0  253256.245022 572580.4733130001 0  253739.471933 571960.9547369999 0  254174.511864 572149.8346569999 0  254484.944333 571684.194807 0  254384.108649 570891.346712 0  254344.002752 570218.26407 0  255025.609604 570829.0294979999 0  255715.005913 570489.264586 0  256218.846343 570774.828355 0  256834.349083 570508.5908 0  257390.092515 570014.308325 0  257624.431042 568493.478911 0  259355.811717 569380.021819 0  260033.372814 569617.066669 0  262679.741751 570320.699974 0  263289.115756 569524.817815 0  263463.114338 570512.301061 0  264638.198419 570687.3443539999 0  265058.220065 571334.378467 0  265447.561421 572077.90485 0  265488.125257 573137.3446020001 0  265131.937715 573963.293593 0  265432.389648 575093.068786 0  265638.122314 576338.029955 0  265750.630817 577371.8281319999 0  265738.570663 578561.9098850001 0  265875.630866 579139.630549 0  266213.129247 579862.311842 0  266563.130472 581112.314509 0  266238.135356 582362.310259 0  265938.12863 583612.320897 0  265738.131342 584762.3210189999 0  266875.638633 585365.358768 0  264018.7239399826 593650.4646671159 0  262236.3944351029 595831.1252656333 0  241846.246678 605206.1436625 0  240200.622106 608424.8903290001 0  240943.4862974102 610939.7757535663 0  236550.6094 599787.3577085 0  238528.1212051503 608102.9081793013 0  244413.4891967989 572609.5960859474 0  236382.0474488751 598808.3067022427 0  235369.601910944 600933.5380148316 0  235413.099011 591037.3503485 0  235446.2251831186 590266.6553871984 0  240475.5921005 578037.3333535 0  240413.173949154 577324.4280286073 0  240574.037899 606283.0066440001 0  263857.9179445 593618.2891454998 0  264153.4303974913 593343.916675058 0  242042.1833925 604946.7714812499 0  241650.3099635 605465.51584375 0  244613.6985165 572229.6575395 0  236631.8579695 598822.2989335 0  235140.029068 600860.444221 0  241767.7287175 604874.0596705 0  242140.15174975 604817.0853906251 0  234781.8558075 600573.1668855001 0  242091.167571125 604881.9284359375 0  234519.3558565 600373.162719 0  254604.8337712102 583989.0014118921 0  250699.5846056537 594617.3297041012 0  250540.4796469513 602258.2940568649 0  248483.7490186612 580334.7345534252 0  258549.2190328319 577893.951823392 0  257067.0067473103 590016.5327808241 0  243285.0921999099 596333.923437875 0  248333.1386145258 589098.0389905117 0  256142.8445072741 595883.3911551933 0  260245.1368072523 583315.2785712298 0  253472.3380211276 578932.2908163272 0  246432.3347504817 599884.5019511909 0  261555.9240922556 588041.186709004 0  247293.1100123104 605823.8307887657 0  246458.2798550911 593168.8646574575 0  252840.0183145193 588226.5564648228 0  249828.2874404451 584740.7888937403 0  255409.5660975206 600458.8956828594 0  260819.9733392385 574219.403683011 0  252584.2262054711 605722.6603825617 0  254049.8830611471 592547.4852571967 0  250015.4356193061 598425.2225922942 0  245872.072249477 577604.9761853142 0  262002.1583249522 579753.4663046852 0  257732.6630933878 586227.970805314 0  250242.5556457866 577017.3316409125 0  244921.6453001869 581816.6358421432 0  256520.3890639471 580904.824006648 0  240779.0970645865 599524.6679555867 0  257100.1829219198 574459.5922545703 0  239912.2630002034 595231.1172704464 0  244703.0875078634 590068.6945953515 0  242549.5490268674 592874.3693043783 0  251586.0465921376 581796.2215047925 0  246643.189997516 596527.447801719 0  251049.7658069622 591057.6752245198 0  253014.5731561695 596998.6601086652 0  238680.2197353724 584542.2309791476 0  259715.365803504 591937.1938619445 0  254097.157218761 575731.4494927844 0  246806.6408589328 586139.0877599345 0  246136.1179750556 602959.471719323 0  253520.7033332401 602835.180253843 0  244125.4295793909 607538.9817227355 0  252546.8895354472 599881.3279113505 0  258289.0983523553 600397.640191779 0  247518.7952199645 583037.3718217331 0  263140.3959879661 582529.2228421422 0  262894.8586894067 585442.3590432997 0  256968.6320599076 593040.7691844478 0  243573.0187527719 600218.2795730785 0  258888.5766127351 595139.7745218446 0  262588.7569809347 576734.8569237856 0  259318.4257992262 580601.2540325444 0  249963.3812725965 607065.7205847671 0  257494.5307999607 583482.5893534871 0  258906.4757205145 572278.8089438241 0  237751.446593475 587300.5805003279 0  255142.4708720699 604956.7580261135 0  258485.4978753244 597756.9250383095 0  255516.7820591553 587791.39641967 0  239758.4692108706 601926.8203218657 0  255873.0092222999 577739.5085867504
[...]
<PointData  Scalars="f_32-1"> 
<DataArray  type="Float64"  Name="f_32-1"  format="ascii">4.1122276772555061e+01  4.2460466098019147e+01  4.4531060944863235e+01  4.6415905036802442e+01  4.7780109278117074e+01  4.9821282999342920e+01  5.0495214491958990e+01  5.0837131752715230e+01  5.0933539858949175e+01  5.1845102853440878e+01  5.2484761948523555e+01  5.2175879504694585e+01  5.2160103790128026e+01  5.4505954976205565e+01  5.5870912098578508e+01  5.7023736854193267e+01  5.8452137111724703e+01  5.9839599523664035e+01  5.9676353204264529e+01  6.0228685776812611e+01  6.2582560038378041e+01  6.4346775019132593e+01  6.6268320588081323e+01  6.7263430767919360e+01  6.7826035526860494e+01  6.9215580856904722e+01  6.9613053384441329e+01  7.0420942981263991e+01  7.1875206841404363e+01  7.2703499245198657e+01  7.2870579362162388e+01  7.3246359427045860e+01  7.4260499826606988e+01  7.5139188881606742e+01  7.5309808643259046e+01  7.6233701850454963e+01  7.7530760301622792e+01  7.8915126474043561e+01  7.9932202546191604e+01  8.0738100151404353e+01  8.1953327904473610e+01  8.3096524706486051e+01  8.4106503896783167e+01  8.4980983331572816e+01  8.5752294954772978e+01  8.5911569908289167e+01  8.6314676557877263e+01  8.6845139126089236e+01  8.7286078453087825e+01  8.7501954310346562e+01  8.7555994518253300e+01  8.7605624294872626e+01  8.7576156908220128e+01  8.7655998300157265e+01  8.7903227994719202e+01  8.7882506354549264e+01  8.7884261427899048e+01  8.7990825068201445e+01  8.7714411465287284e+01  8.6941293164174525e+01  8.6110655720307321e+01  8.5424892753775794e+01  8.4351884205555251e+01  8.2609146832667037e+01  8.2380492423441467e+01  8.4547139134950640e+01  8.5107669254300063e+01  8.5234213497129360e+01  8.5397182458068656e+01  8.5622195944011551e+01  8.5913600709745964e+01  8.6981325205505144e+01  8.7417828568489057e+01  8.7709264275709188e+01  8.7781107539842083e+01  8.7453114068674140e+01  8.6806256784422757e+01  8.6200900975358692e+01  8.5588600511665604e+01  8.6012387340470852e+01  8.6340284996858657e+01  8.6769125882006037e+01  8.6882291226936431e+01  8.6882538702918026e+01  8.6937344700776904e+01  8.6916847602755070e+01  8.6633912924965401e+01  8.5742511941724899e+01  8.4253858550008800e+01  8.4104858261356540e+01  8.5612445785061780e+01  8.6269950933720011e+01  8.6464953992468210e+01  8.6325028366919966e+01  8.6431048663136494e+01  8.6276307037566013e+01  8.6276687309737468e+01  8.6086848527651341e+01  8.6009793630647010e+01  8.5711397648467369e+01  8.3411157847118162e+01  8.0964386411788837e+01  7.7772049666376702e+01  7.4703767220060385e+01  7.1753644529495105e+01  6.9423428518547851e+01  6.7696232832255106e+01  6.6192077624684870e+01  6.4545109486337523e+01  6.3082605391063566e+01  6.1247008532646795e+01  6.0593569152785562e+01  6.0980325924502509e+01  6.3910285993216874e+01  6.6099327095328363e+01  6.6971001887973642e+01  6.7888938240348097e+01  6.9552302665603150e+01  7.1965059131892843e+01  7.5081423601216443e+01  7.6061478639781882e+01  7.6072906248447396e+01  7.4617838514721299e+01  7.2022780252678160e+01  7.1603206210695333e+01  7.3899263691976458e+01  7.5515008042652369e+01  7.6096402369912525e+01  7.6104671026068587e+01  7.4341089400335477e+01  6.9416742392385601e+01  6.8702500336666859e+01  6.7669460291207116e+01  6.7114555370006912e+01  6.6199172780361010e+01  6.5017137626800178e+01  6.3624368512490697e+01  6.2312359003981712e+01  6.1095177126137152e+01  6.0561532135861142e+01  6.0257420879095534e+01  6.0097678095166259e+01  5.9656199555590462e+01  5.9529751083906000e+01  5.9544828069531057e+01  6.0082299568222460e+01  6.0798516095543562e+01  6.0925909157253081e+01  5.9810510757818584e+01  5.8589490310769015e+01  5.7402619792287346e+01  5.6673979329845409e+01  5.6352102207416124e+01  5.4824483242126902e+01  5.3401755312346324e+01  5.2082876182302847e+01  5.1682788693130462e+01  5.0509945249776514e+01  4.9034755306635702e+01  4.9297049463220219e+01  4.8593857779775149e+01  4.7730417162581197e+01  4.5860932300528070e+01  4.3688812138963918e+01  4.2317812715443949e+01  4.0751451014782958e+01  3.9429384005511899e+01  3.8136158795461462e+01  3.7399293190458899e+01  3.6939054104254119e+01  3.5884088368244342e+01  3.5232296426637852e+01  3.5153390219360212e+01  3.5032155579346366e+01  3.4450684129621955e+01  3.3959337039712977e+01  3.2851048467813591e+01  3.1937395028535818e+01  3.2912451809930744e+01  3.1015014243369627e+01  3.1087758720680981e+01  3.2983647585328193e+01  3.2989351683149671e+01  3.3287217092596535e+01  3.2815538522359020e+01  3.2234327152940281e+01  3.1800817956610498e+01  3.1941250866264166e+01  3.2509505381256055e+01  3.3283430676063354e+01  3.4068892646523260e+01  3.4921285895835034e+01  3.6015521708241423e+01  3.6411516147190085e+01  3.6848047069293521e+01  3.8193645474357076e+01  4.0269736316221042e+01  4.1190962930963771e+01  4.0628121678303380e+01  4.0554541483424551e+01  5.2405011282754650e+01  5.9956564627240979e+01  8.4936750508382204e+01  8.7386156451050098e+01  8.7870803886494556e+01  8.5029467820408030e+01  8.7682051379187527e+01  4.9059880479397293e+01  8.4871568104631166e+01  8.6428009502985688e+01  7.3305598507025323e+01  7.2472020151090376e+01  5.9737350035267127e+01  5.9555886035844324e+01  8.6518200200191131e+01  5.2405325511304405e+01  5.2215209642299826e+01  8.4656683156124288e+01  8.5197799541343812e+01  4.9058932863161132e+01  8.3944250928303205e+01  8.6428017172707797e+01  8.5262706441243978e+01  8.4508365228166483e+01  8.6397007991000109e+01  8.4583458357211342e+01  8.6396562795322737e+01  4.9369684835783644e+01  6.6940346908798602e+01  7.5700563167325996e+01  5.1838994995319773e+01  3.6760917484757968e+01  5.3787005270629848e+01  7.4932574665010080e+01  6.1531538977900013e+01  6.4246141358892899e+01  4.1979654219205081e+01  4.3574311204950924e+01  7.5663329083751620e+01  4.6439451055809350e+01  8.1824133116286987e+01  6.7738759089572227e+01  5.5171943870266048e+01  5.6535337473435625e+01  6.9215012825895343e+01  3.3664029407226899e+01  7.7783691876125616e+01  6.1640079235167143e+01  7.1153256905364842e+01  5.2191609234402307e+01  3.6970933616899600e+01  4.7566468821576478e+01  4.5300391225790008e+01  5.7633977231187302e+01  4.3026846382016473e+01  8.0999025082885609e+01  3.6620867661197352e+01  7.5460980420024228e+01  6.5381520610692476e+01  6.9802765441043888e+01  5.0541626112041364e+01  7.2445541048244181e+01  6.1040451317173847e+01  6.8084459968448584e+01  6.4767467556658232e+01  5.5674703202469246e+01  3.8802601182053152e+01  5.9756198989952736e+01  7.9664233923042246e+01  7.4409315381402436e+01  8.5327866192174156e+01  7.1331529795436353e+01  6.9431089586181614e+01  5.6203537196279477e+01  3.9490173954508393e+01  4.1459879454005240e+01  5.9575629014827285e+01  7.8876200056812706e+01  6.0764836062063175e+01  3.5094592119704537e+01  3.9244655845053927e+01  8.0995501346363284e+01  4.5217301181884814e+01  3.1887181236940531e+01  6.7561002488306016e+01  7.5654865811978254e+01  6.5117976357241588e+01  5.0731432599208603e+01  8.5184761453511953e+01  3.8782841848402576e+01  5.0705291382511142e+01  5.9933391977361907e+01  6.5477253711484096e+01  5.6366945129528652e+01  4.7075581604122306e+01  4.3546772139682012e+01  5.6923007212747123e+01  4.8080940227730693e+01  4.7837368322513143e+01  4.4462668383333401e+01  4.9632781039047373e+01  8.4383756074885682e+01  7.8311141612905871e+01  5.2936182391026918e+01  8.2967131202764321e+01  7.5631716474978433e+01  7.4344932076044159e+01  8.0319212624999565e+01  6.2496916982172500e+01  5.8980505433489355e+01  6.6656132278749382e+01  7.2240748348465203e+01  5.8011955863733029e+01  7.8194651492764933e+01  5.1392056992259903e+01  6.5482088367117285e+01  3.2435364393645706e+01  4.9754132418447803e+01  6.9001479427145895e+01  7.7215782783926372e+01  6.4673391167615208e+01  7.0797919499105987e+01  6.2668429645438955e+01  7.1302588029671526e+01  3.5844471385590005e+01  5.3708321006015076e+01  5.3217022875488510e+01  7.9609891796733734e+01  6.7784011892879917e+01  3.7541622662436026e+01  7.9157471827797750e+01  6.3604517501491820e+01  8.4234860174125430e+01  3.3309954655114886e+01  8.4614579645147259e+01  8.4549129700507223e+01  5.5257194626932119e+01  5.0862515292543364e+01  8.4621914098456443e+01  8.5638904318147596e+01  8.2788983582419363e+01  8.5064460201073189e+01  7.1392779238476464e+01  3.6053313243850063e+01  8.0664909928554081e+01  7.5642348622993993e+01  5.6127962461696406e+01  5.0441307072238715e+01  4.7072438780193011e+01  8.5342964665519517e+01  8.4547135347401877e+01  5.8258927023747539e+01  8.5751501954818849e+01  8.3570782377802047e+01  8.4064349231734397e+01  8.5811524794732321e+01  5.9782752257183148e+01  4.8908455344136897e+01  7.0957449384287528e+01  3.4100942557319264e+01  4.8889123998465756e+01  3.6831348997360188e+01  6.8998601013453538e+01  8.7138411597173459e+01  6.6584776207805362e+01  7.2720415267583263e+01  8.3295777866304292e+01  6.0069788280077823e+01  3.0791873005468386e+01  7.1921068716716633e+01  3.9519507568017410e+01  5.2200115579721775e+01  8.4805553276562080e+01  8.2823276551815525e+01  6.1860574051105203e+01  8.7145615429132818e+01  4.3971880633068587e+01  8.5360740630402915e+01  6.3705439102464481e+01  3.2426362714670674e+01  3.6213266329549541e+01  3.7290464587822449e+01  7.2457587558388056e+01  8.1682332786036824e+01  8.0947830741136002e+01  6.8511329934031423e+01  8.5074857174091647e+01  5.9791161017117687e+01  4.8861201403888415e+01  4.8852623792671885e+01  3.2302029569512825e+01  8.4620655947631633e+01  8.4798915950443856e+01  8.4869434922606089e+01  7.5372552697378040e+01  8.1408489977599245e+01  8.4976710174342742e+01  8.3409722566326877e+01  6.6778398495339133e+01  8.7811144321493401e+01  8.7748303383136474e+01  6.1054554898010977e+01  3.5101601121397643e+01  6.0783544243864775e+01  8.1908128226033583e+01  5.5823350308696376e+01  6.4526888082281204e+01  8.7366692286548670e+01  6.1753049955184458e+01  7.3257475576825044e+01  4.0834086529442189e+01  5.6401075205907887e+01  5.5624337827022870e+01  5.7006659256296182e+01  8.5823064501873574e+01  5.0275475771731713e+01  5.1197574284400382e+01  4.9272685525867757e+01  5.1068326014547985e+01  4.7269808625448150e+01  3.2845868308635225e+01  3.1085966627194278e+01  5.2144340531165490e+01  5.4964751360448318e+01  7.5747159567861928e+01  7.5650415588418483e+01  8.7586863293166928e+01  6.6882121372242693e+01  6.4935969101926631e+01  6.0794337025855995e+01  6.0251292658227712e+01  6.0426678070755862e+01  6.0659551987674249e+01  6.0324960021128760e+01  6.0349961833142203e+01  6.2305209136004308e+01  6.0480458168254152e+01  6.1049601593173534e+01  6.4019352136335471e+01  6.2394236887154435e+01  5.8585935645118347e+01  6.0095770300981556e+01  4.4680214706927700e+01  4.6466719696470044e+01  4.4631081952275885e+01  4.3003097144164528e+01  4.3612433909528207e+01  4.1583142519139884e+01  4.2926446701215475e+01  4.2243193148862993e+01  3.8888271204491232e+01  3.7680493159400136e+01  3.3958236002117012e+01  3.4472164117853509e+01  3.4438116707284095e+01  3.5482199502810218e+01  3.4911882147062919e+01  3.6235659580190301e+01  3.6353907513860797e+01  3.5526105633854613e+01  3.6625333757319979e+01  3.6506973215687964e+01  3.7181675634910192e+01  3.6661914787770733e+01  3.7838151036553690e+01  4.0453017492926776e+01  3.8862680682016553e+01  4.7900039751186306e+01  4.6517696776263094e+01  4.7108807765137726e+01  5.0599577552309171e+01  6.8487328403622854e+01  6.7436451141484071e+01  6.6329905245198788e+01  6.7885935940416402e+01  7.3819753127744747e+01  7.7037229104483487e+01  7.5093585961298146e+01  7.6854483498807397e+01  5.4424549455113201e+01  5.0024433463219225e+01  5.0663511477846953e+01  5.2777323773459749e+01  3.7164848828999880e+01  3.8809729838693670e+01  3.6831925461319514e+01  3.7709206792138708e+01  3.7144223329997835e+01  3.6570945858355124e+01  5.4942152175637247e+01  5.6965844328216548e+01  5.2064529431936329e+01  5.5004275475656975e+01  5.1645241962962714e+01  7.5331191488668736e+01  7.2594589722415776e+01  6.0997143746146619e+01  6.0631875783735317e+01  6.3109584575405385e+01  5.9849503003375567e+01  6.3054699383179937e+01  6.1972041184329434e+01  6.3184395211552257e+01  6.6281829181325733e+01  6.4985134070194135e+01  3.8675610571993808e+01  4.0047106293238713e+01  4.1672408246233161e+01  4.0758731935216723e+01  4.3836878757167270e+01  4.3235530527434513e+01  4.7493351141506217e+01  4.0601062117313347e+01  4.1084843083792300e+01  4.5467544195708307e+01  4.5950390064691270e+01  7.3368744009410790e+01  7.7545756074784961e+01  7.4764468123798707e+01  7.8162345467633344e+01  8.0823080189170511e+01  7.0220877276047588e+01  6.6221507794959876e+01  6.9146161790142301e+01  6.7705993717527221e+01  5.2700766332154096e+01  5.6106822096313778e+01  5.6536193235017848e+01  5.2695059097014834e+01  7.2018503363319937e+01  6.9582343518955483e+01  6.9453667669230867e+01  6.7349804084513053e+01  3.5042442960850678e+01  3.4052633569122683e+01  6.1588067569906599e+01  6.0589451453422647e+01  5.9460649089017743e+01  7.1589434984314082e+01  6.9514808217791398e+01  7.2995390736259495e+01  6.9683283747228714e+01  5.4204117785924851e+01  5.0304410406506328e+01  5.0838440115810570e+01  5.2476312233430704e+01  5.0777631021885163e+01  5.2467976816905413e+01  3.7609491910224826e+01  3.6566715415771334e+01  3.7743915567544434e+01  3.6631943924804453e+01  3.7108691343914039e+01  3.7081679278124795e+01  4.6337376196995642e+01  4.8967874718758253e+01  4.8366495243087186e+01  4.9011446998223207e+01  4.1255049095037442e+01  4.6552182450873062e+01  4.6507243506037774e+01  4.7737311465467215e+01  4.1976213321693933e+01  4.4540673026368907e+01  5.7454472177423014e+01  5.8903646153862525e+01  5.6724668487761562e+01  5.6281747294695215e+01  4.0911661468014394e+01  4.4371786840690788e+01  4.0391514411320564e+01  4.5086609657793460e+01  3.7769322922852922e+01  3.4744020358034597e+01  3.7703799280669273e+01  3.6242572548557959e+01  3.6330222265928455e+01  3.5466747718556775e+01  3.7048736105457941e+01  6.5021277894087675e+01  6.3914325587039691e+01  6.6647266598468974e+01  6.6197386932827897e+01  7.0346678420496730e+01  4.8865311366469655e+01  4.9380154026019753e+01  7.0667866876997877e+01  6.3220357044584503e+01  5.9799500683112385e+01  5.9196823402613262e+01  6.2333746645405135e+01  6.9476269698566625e+01  6.7418579480847939e+01  6.3560961424220466e+01  6.3321956635524074e+01  5.7514206316704822e+01  5.2711935473858752e+01  3.9278358017459013e+01  3.8813144637100983e+01  3.7904484452646749e+01  5.9150243321967636e+01  6.1196082931936523e+01  7.6730973453607902e+01  7.8845660798449501e+01  7.2813902834659828e+01  7.6381085716892301e+01  7.3117093145374625e+01  7.3389889942785587e+01  6.8328818339058870e+01  6.7570423245808598e+01  5.5982129413835402e+01  3.8430925845538994e+01  5.8191931163917658e+01  5.8834169457775666e+01  3.5256283992407759e+01  3.6348286247686104e+01  3.5184836871256195e+01  4.2454486060889309e+01  4.4904575746447506e+01  5.3556341844370536e+01  4.9973601851275568e+01  5.0701323880140301e+01  5.0434428404158183e+01  5.9655153842723230e+01  5.9915297613240526e+01  6.0499466424233525e+01  6.0598404042288280e+01  6.4993781949092309e+01  6.4467816923961493e+01  5.4840506719317773e+01  5.0095472343597528e+01  4.8848502867681134e+01  5.0720872632213279e+01  4.8794545306393417e+01  4.5793460870908433e+01  4.7012286308304553e+01  5.5630119346379438e+01  5.2397236105443312e+01  7.6192369103420049e+01  5.4554456487659159e+01  5.1431500864459061e+01  6.3449456753705931e+01  6.6336917107467869e+01  6.9048575294577631e+01  6.7286130228848663e+01  3.7190018859113259e+01  3.4084128692701661e+01  3.6783025803652180e+01  5.9937387682839010e+01  3.6171254541909917e+01  6.0603293235896231e+01  4.1825407641602709e+01  3.8128750008414649e+01  6.1378082670391876e+01  4.9190933544989065e+01  6.8209126369363631e+01  3.6993776882337770e+01  3.7359290960649041e+01  3.6670150722202209e+01  3.6839231213765657e+01  3.6611845836756643e+01  6.2529313691028435e+01  4.3670805427865119e+01  4.5656046925393078e+01  4.4778045565236724e+01  7.6065514664222931e+01  5.8787651784458561e+01  5.3927659694550343e+01  5.3810607807926296e+01  5.4579584229604379e+01  3.4936969109784734e+01  6.9646821952433754e+01  7.0215176357146333e+01  3.7466576298371137e+01  3.7124878410981438e+01  4.7573043488774537e+01  4.8179293425616279e+01  4.3159459998640052e+01  5.7167017575710318e+01  6.0836209889753171e+01  6.2070680010659594e+01  5.9929018950012583e+01  6.2694770897836072e+01  3.9773389293625918e+01  3.8246241560729764e+01  3.8716889607440891e+01  3.8350005956123816e+01  6.9776186514909227e+01  3.8438756314996176e+01  4.0018204025055979e+01  4.0834037327380592e+01  5.1309783494571683e+01  5.1633527622924852e+01  5.1995492175079221e+01  5.0248578598687615e+01  3.9931669758564489e+01  3.8068358848151554e+01  3.9118585076857407e+01  4.9855629032997498e+01  7.3791260484015851e+01  7.4469296307589275e+01  7.5403948079157445e+01  6.2236656045643869e+01  6.7297125752252526e+01  5.2841160105852055e+01  5.0196698388986754e+01  4.9323810563579386e+01  5.0654668513391343e+01  6.5487055343429759e+01  6.2241184366274602e+01  6.2984239672000122e+01  3.6585808663084549e+01  3.6319463160381396e+01  3.6041090404876257e+01  5.2905654661136090e+01  5.5062194171177126e+01  5.4915724063413244e+01  5.2371218826366857e+01  6.7103340016344461e+01  3.6276986163298098e+01  3.6687555376109465e+01  3.6562592844673716e+01  6.0443284986606756e+01  6.0190336843052677e+01  6.0257204282074476e+01  4.3039481417337008e+01  4.4233839876385275e+01  4.4842001392594739e+01  3.7457424039064577e+01  3.5329116421727946e+01  3.5753132606657573e+01  6.1296037460255903e+01  6.2744582704834670e+01  6.1916654743233543e+01  6.1112519157262710e+01  6.1119947052376197e+01  6.1527401504836604e+01  6.0785010956895434e+01  4.5126495721355262e+01  3.5843576306815123e+01  4.8472990904034290e+01  6.9010461248452302e+01  5.1624733236598310e+01  5.1065307540055798e+01  3.6828395839235007e+01  3.7725490003327280e+01  3.7874596055302071e+01  3.9035749964497590e+01  3.8384982793387138e+01  3.7345949367971265e+01  5.1804022401761920e+01  5.0924929227903377e+01  5.0780709852470359e+01  6.1923013722160540e+01  6.2697046447335595e+01  3.7932217935882711e+01  3.8678356858859225e+01  4.1893793572027683e+01  4.2296286317374559e+01  4.6805831664207162e+01  4.0637752953268105e+01  4.0701072865870444e+01  4.0022502822822936e+01  4.7813284516926124e+01  7.5660255027399359e+01  5.3083078699655374e+01  5.4823497907787221e+01  5.3569104593528024e+01  6.8182773285817220e+01  6.8802908708278252e+01  6.7578761066861446e+01  5.1595088194099468e+01  5.3596002201825264e+01  5.1848543244685992e+01  4.5142412824209863e+01  5.6257597143839149e+01  5.5399076279158763e+01  3.8504498888371927e+01  3.7817579301679238e+01  6.5878555317819774e+01  6.5662813130799307e+01  6.6518969279536890e+01  3.8278494963531735e+01  3.6290202214668852e+01  </DataArray> 
</PointData> 
</Piece>
</UnstructuredGrid>
</VTKFile>