<?xml version="1.0"?>
<VTKFile type="UnstructuredGrid"  version="0.1"  >
<UnstructuredGrid>
<Piece  NumberOfPoints="784" NumberOfCells="1320">
<Points>
<DataArray  type="Float64"  NumberOfComponents="3"  format="ascii">266913.131276 586512.314988 0  266738.13716 587762.325998 0  266363.132677 589012.328643 0  266175.641078 590169.601714 0  265666.575631 591040.7699119999 0  264875.64001 591687.766419 0  264900.636161 591845.049083 0  266088.14152 592012.3229499999 0  265561.959259 592661.17101 0  264288.136855 593037.368683 0  263865.194033 593999.8486949999 0  263850.641856 593236.729596 0  263625.634872 592756.525286 0  262689.574249 593299.848918 0  262475.636737 594003.0907310001 0  261934.554452 594340.929792 0  261725.631329 594932.094409 0  261729.256443 595728.498809 0  262138.136044 595012.330523 0  262288.141035 596262.333669 0  261488.994028 597511.480605 0  261234.15567 598316.338928 0  260815.635063 599014.863821 0  261400.643658 599389.7367680001 0  261322.963374 600022.185065 0  261119.455248 600931.061306 0  261607.436504 601293.0629359999 0  260807.446929 602089.899812 0  260025.642878 602988.868697 0  259613.135827 603937.3854499999 0  259050.643123 604100.987861 0  258411.880065 603988.6335979999 0  257764.357469 604449.872569 0  257971.239668 605320.429125 0  258041.396867 605740.635381 0  257188.143339 606987.394312 0  256038.141198 608112.3554550001 0  254788.141633 609087.4026939999 0  253588.140656 609812.362881 0  252338.135706 609737.4048949999 0  251088.138116 609787.404055 0  249963.12851 610287.399466 0  248613.130524 610462.365857 0  247363.132198 610687.407659 0  246113.130532 610837.411551 0  245832.347438 610918.209918 0  245016.946433 610958.5639439999 0  244313.129646 610762.372259 0  244400.622144 611378.093316 0  243939.669208 612460.8930899999 0  242960.649733 611984.892792 0  242170.381438 611919.647351 0  241888.122919 611112.375656 0  241393.380757 610467.6456149999 0  240594.157528 611306.369822 0  240525.621947 610804.648112 0  240363.123632 610512.3745050001 0  239113.123247 610262.374278 0  239813.12126 609037.412459 0  240588.122952 607812.368199 0  241013.119545 606625.9534560001 0  241454.373249 605724.888025 0  242238.120107 604687.3993 0  243088.121248 603462.362766 0  242860.319451 603007.3932640001 0  241563.116617 603812.361344 0  241778.400913 604327.642217 0  242059.837234 604824.879102 0  241475.620201 604923.2402390001 0  241462.182234 605449.881372 0  240906.219606 605674.888222 0  240241.856192 606891.125066 0  239891.734044 607841.012479 0  239048.653431 608724.889805 0  238118.054545 608974.895967 0  238888.111029 607337.406468 0  239738.119992 606212.362729 0  240288.12044 605687.4075229999 0  240380.212307 604729.521696 0  239347.309632 604603.204501 0  238888.112036 604387.408787 0  237913.11173 604687.401386 0  236784.172023 604499.882783 0  236883.408793 603717.08334 0  236154.933927 603595.565605 0  235688.103943 602912.369264 0  235763.108033 601662.366516 0  236363.110805 600412.35884 0  236738.107995 599162.356577 0  236525.607944 598482.2412899999 0  236138.109208 599362.357613 0  235725.063048 600325.4466510001 0  235091.948926 601408.5220979999 0  235188.10921 600312.366344 0  234375.602405 600833.9674270001 0  234663.109308 599912.358011 0  234138.105122 600062.365644 0  233955.307245 599029.561063 0  233338.103791 598387.401556 0  233988.09795 597862.356384 0  235138.101489 596637.3947750001 0  235563.1039 595387.392428 0  236513.103639 594212.356312 0  237163.10684 592987.3929869999 0  238313.103031 591862.3515540001 0  239513.107028 590812.3512640001 0  240638.102135 589787.387271 0  241463.109549 588587.378486 0  242294.489816 587443.735215 0  242913.101099 586512.341804 0  243544.066915 585474.859604 0  243040.448415 585184.975583 0  242438.10214 585337.38015 0  241313.102353 586562.339499 0  240538.107104 587787.382449 0  240114.641085 588588.939407 0  239388.100256 589437.382238 0  238188.104456 590512.346358 0  236938.100507 591362.349798 0  235813.10453 592537.396388 0  234864.502938 593178.7753880001 0  234463.097651 592862.357267 0  235113.0965 591662.3545979999 0  235713.101522 590412.346099 0  235777.688431 589976.7582779999 0  234943.583145 590706.265132 0  234462.482256 591490.2841159999 0  233801.497784 592112.940187 0  233388.099101 591787.394208 0  234013.093099 590437.393065 0  234776.217248 587148.7548100001 0  235163.093726 586562.3486189999 0  235313.098918 585483.229012 0  235250.59732 584662.298153 0  235588.093896 583337.379493 0  236329.432041 582199.858992 0  237188.096234 581462.3349939999 0  237463.088521 580212.335511 0  238350.592558 579057.652616 0  238591.415797 578574.847681 0  238313.094106 577612.328905 0  239229.696732 577695.769664 0  240195.161018 577513.008613 0  240614.996733 577149.8518770001 0  240663.091715 577412.332622 0  240288.092486 578662.334085 0  239942.357258 579508.095811 0  240438.100019 580212.3334220001 0  241338.095553 580387.375355 0  241238.099828 579137.369157 0  241788.097003 577887.370889 0  241983.554649 577241.9220939999 0  242054.178239 576927.8105029999 0  242588.100699 575737.366175 0  243149.324833 574898.583978 0  243695.278626 573919.517981 0  244268.494418 573724.8454239999 0  244995.134063 573930.2767810001 0  245417.314363 573391.601898 0  243450.599125 571859.479773 0  245776.797908 572599.8353060001 0  246779.639852 572973.285167 0  248034.741935 573186.082054 0  249413.10651 573162.3205520001 0  250496.922226 573271.1521899999 0  251613.105126 573237.3551319999 0  252421.824577 572846.032906 0  253256.245022 572580.4733130001 0  253739.471933 571960.9547369999 0  254174.511864 572149.8346569999 0  254484.944333 571684.194807 0  254384.108649 570891.346712 0  254344.002752 570218.26407 0  255025.609604 570829.0294979999 0  255715.005913 570489.264586 0  256218.846343 570774.828355 0  256834.349083 570508.5908 0  257390.092515 570014.308325 0  257624.431042 568493.478911 0  259355.811717 569380.021819 0  260033.372814 569617.066669 0  262679.741751 570320.699974 0  263289.115756 569524.817815 0  263463.114338 570512.301061 0  264638.198419 570687.3443539999 0  265058.220065 571334.378467 0  265447.561421 572077.90485 0  265488.125257 573137.3446020001 0  265131.937715 573963.293593 0  265432.389648 575093.068786 0  265638.122314 576338.029955 0  265750.630817 577371.8281319999 0  265738.570663 578561.9098850001 0  265875.630866 579139.630549 0  266213.129247 579862.311842 0  266563.130472 581112.314509 0  266238.135356 582362.310259 0  265938.12863 583612.320897 0  265738.131342 584762.3210189999 0  266875.638633 585365.358768 0  264018.7239399826 593650.4646671159 0  262236.3944351029 595831.1252656333 0  241846.246678 605206.1436625 0  240200.622106 608424.8903290001 0  240943.4862974102 610939.7757535663 0  236550.6094 599787.3577085 0  238528.1212051503 608102.9081793013 0  244413.4891967989 572609.5960859474 0  236382.0474488751 598808.3067022427 0  235369.601910944 600933.5380148316 0  235413.099011 591037.3503485 0  235446.2251831186 590266.6553871984 0  240475.5921005 578037.3333535 0  240413.173949154 577324.4280286073 0  240574.037899 606283.0066440001 0  263857.9179445 593618.2891454998 0  264153.4303974913 593343.916675058 0  242042.1833925 604946.7714812499 0  241650.3099635 605465.51584375 0  244613.6985165 572229.6575395 0  236631.8579695 598822.2989335 0  235140.029068 600860.444221 0  241767.7287175 604874.0596705 0  242140.15174975 604817.0853906251 0  234781.8558075 600573.1668855001 0  242091.167571125 604881.9284359375 0  234519.3558565 600373.162719 0  254604.8337712102 583989.0014118921 0  250699.5846056537 594617.3297041012 0  250540.4796469513 602258.2940568649 0  248483.7490186612 580334.7345534252 0  258549.2190328319 577893.951823392 0  257067.0067473103 590016.5327808241 0  243285.0921999099 596333.923437875 0  248333.1386145258 589098.0389905117 0  256142.8445072741 595883.3911551933 0  260245.1368072523 583315.2785712298 0  253472.3380211276 578932.2908163272 0  246432.3347504817 599884.5019511909 0  261555.9240922556 588041.186709004 0  247293.1100123104 605823.8307887657 0  246458.2798550911 593168.8646574575 0  252840.0183145193 588226.5564648228 0  249828.2874404451 584740.7888937403 0  255409.5660975206 600458.8956828594 0  260819.9733392385 574219.403683011 0  252584.2262054711 605722.6603825617 0  254049.8830611471 592547.4852571967 0  250015.4356193061 598425.2225922942 0  245872.072249477 577604.9761853142 0  262002.1583249522 579753.4663046852 0  257732.6630933878 586227.970805314 0  250242.5556457866 577017.3316409125 0  244921.6453001869 581816.6358421432 0  256520.3890639471 580904.824006648 0  240779.0970645865 599524.6679555867 0  257100.1829219198 574459.5922545703 0  239912.2630002034 595231.1172704464 0  244703.0875078634 590068.6945953515 0  242549.5490268674 592874.3693043783 0  251586.0465921376 581796.2215047925 0  246643.189997516 596527.447801719 0  251049.7658069622 591057.6752245198 0  253014.5731561695 596998.6601086652 0  238680.2197353724 584542.2309791476 0  259715.365803504 591937.1938619445 0  254097.157218761 575731.4494927844 0  246806.6408589328 586139.0877599345 0  246136.1179750556 602959.471719323 0  253520.7033332401 602835.180253843 0  244125.4295793909 607538.9817227355 0  252546.8895354472 599881.3279113505 0  258289.0983523553 600397.640191779 0  247518.7952199645 583037.3718217331 0  263140.3959879661 582529.2228421422 0  262894.8586894067 585442.3590432997 0  256968.6320599076 593040.7691844478 0  243573.0187527719 600218.2795730785 0  258888.5766127351 595139.7745218446 0  262588.7569809347 576734.8569237856 0  259318.4257992262 580601.2540325444 0  249963.3812725965 607065.7205847671 0  257494.5307999607 583482.5893534871 0  258906.4757205145 572278.8089438241 0  237751.446593475 587300.5805003279 0  255142.4708720699 604956.7580261135 0  258485.4978753244 597756.9250383095 0  255516.7820591553 587791.39641967 0  239758.4692108706 601926.8203218657 0  255873.0092222999 577739.5085867504
[...]
<PointData  Scalars="f_49376-1"> 
<DataArray  type="Float64"  Name="f_49376-1"  format="ascii">4.1586078005634199e+01  4.2873943148163328e+01  4.4832346843995225e+01  4.6610250939387001e+01  4.7941780590199670e+01  5.0001695794217163e+01  5.0645631524306715e+01  5.1092843310147231e+01  5.1121574599500505e+01  5.1684031305273358e+01  5.2036639874521541e+01  5.1902266995820462e+01  5.2146790179663554e+01  5.4738094007970844e+01  5.6158266420118174e+01  5.7450484599678106e+01  5.8979818797161045e+01  6.0444975690268350e+01  6.0412822401050505e+01  6.0828098712431206e+01  6.2941826700252278e+01  6.4644308976243906e+01  6.6633266179711853e+01  6.7642681265387978e+01  6.8174785327950403e+01  6.9434737080678090e+01  6.9795517116080376e+01  7.0483148318449778e+01  7.1774086426936265e+01  7.2550148604704248e+01  7.2740490004698074e+01  7.3221354443484273e+01  7.4401033769099286e+01  7.5332111175029240e+01  7.5507787562569703e+01  7.6409854989954582e+01  7.7644472116980552e+01  7.8937114369146059e+01  7.9856039376901833e+01  8.0657378495538538e+01  8.1853975892291714e+01  8.2980403200860778e+01  8.3994091335173877e+01  8.4886277645786265e+01  8.5680570661746088e+01  8.5848086495109627e+01  8.6279107348783867e+01  8.6829662875753101e+01  8.7254528001924854e+01  8.7449403839031234e+01  8.7487802715511265e+01  8.7525434611620383e+01  8.7512763210496814e+01  8.7596062901363979e+01  8.7794551406259572e+01  8.7779320903485157e+01  8.7782252020966439e+01  8.7863323216452940e+01  8.7647998850289326e+01  8.6949952961939260e+01  8.6141572266579317e+01  8.5469886414531203e+01  8.4386435436317015e+01  8.2641276346045018e+01  8.2463262052510984e+01  8.4682554894005776e+01  8.5261312280719679e+01  8.5395050949724435e+01  8.5544355523556575e+01  8.5757485605696047e+01  8.6041216743866556e+01  8.7074133444077589e+01  8.7454522113406981e+01  8.7663140932240083e+01  8.7709168459336709e+01  8.7479934195478563e+01  8.6911779033322276e+01  8.6324353749645311e+01  8.5688143024112989e+01  8.6013438079606871e+01  8.6300759749276679e+01  8.6722083538078792e+01  8.6853302971878023e+01  8.6840201614585226e+01  8.6882349840772704e+01  8.6849872775824366e+01  8.6556584285215990e+01  8.5642818510194644e+01  8.4175152293604881e+01  8.3990119884740835e+01  8.5441095594461814e+01  8.6073987201981623e+01  8.6269806024630327e+01  8.6116756387257482e+01  8.6198238420857990e+01  8.6039178053769092e+01  8.6019177639206305e+01  8.5806595666733259e+01  8.5709670201088002e+01  8.5427386202604580e+01  8.3198130094652043e+01  8.0862953565492163e+01  7.7873089952402168e+01  7.5021806599171683e+01  7.2303624026027677e+01  6.9987918308515006e+01  6.8099380135205649e+01  6.6310561687830386e+01  6.4508559387760329e+01  6.2877056490062145e+01  6.0956558911028388e+01  6.0005344005062121e+01  6.0301544308463889e+01  6.3611016724756070e+01  6.6180844801804653e+01  6.7189706101134760e+01  6.8201050151238206e+01  6.9918969310883483e+01  7.2136857431266492e+01  7.4549335267647706e+01  7.5211250817330750e+01  7.5218517334440563e+01  7.4217564926524858e+01  7.2180207161493129e+01  7.1776360651136088e+01  7.3633183068206534e+01  7.4877108469264556e+01  7.5301230881973225e+01  7.5304947146606764e+01  7.3980537321891845e+01  6.9538586902591192e+01  6.8816641640278021e+01  6.7723606084103935e+01  6.7121337744923750e+01  6.6214664603299752e+01  6.5116918237586191e+01  6.3777309950159882e+01  6.2469845427161751e+01  6.1341964495778825e+01  6.0874102948699232e+01  6.0589539295321913e+01  6.0516029056065847e+01  6.0270384777220762e+01  6.0194764737109665e+01  6.0203794731835444e+01  6.0571695605708392e+01  6.1154414783726729e+01  6.1244923255658691e+01  6.0093413427354349e+01  5.8597433981667336e+01  5.7364453940156132e+01  5.6614699848132645e+01  5.6286290017547358e+01  5.4823506270669412e+01  5.3530096581366770e+01  5.2363433303573430e+01  5.2000182873672301e+01  5.0885197999696693e+01  4.9406551709546122e+01  4.9339624529560197e+01  4.8967990743250866e+01  4.8158978557495317e+01  4.6148768970089883e+01  4.3735437288657337e+01  4.2283101462189236e+01  4.0741164320479243e+01  3.9434230076037828e+01  3.8208336137870816e+01  3.7524359211267161e+01  3.7085564611078091e+01  3.6144021760457733e+01  3.5591267603797178e+01  3.5525023271010774e+01  3.5437589945033849e+01  3.4980034150260998e+01  3.4616639253167754e+01  3.4581088019413293e+01  3.7490312422124262e+01  4.2393849929110431e+01  3.7255083587963128e+01  3.4955515377064657e+01  3.3129351728783789e+01  3.3336313463435339e+01  3.3265696239006324e+01  3.3016647761365455e+01  3.2709102367370029e+01  3.2417937747040639e+01  3.2441357522051952e+01  3.2900565056235358e+01  3.3661411943957738e+01  3.4457143750934520e+01  3.5197658068845051e+01  3.6153484208761718e+01  3.6680050782761967e+01  3.7325559783838912e+01  3.8594721648172737e+01  4.0173080476483619e+01  4.1199445558267826e+01  4.1185151006338707e+01  4.1086936359728803e+01  5.2000061967753780e+01  6.0599421763329765e+01  8.4983808326578767e+01  8.7364462078776782e+01  8.7769639861799945e+01  8.4938218645605616e+01  8.7644777790339120e+01  4.9222807796931235e+01  8.4720278369506786e+01  8.6231561320719337e+01  7.3233090232421659e+01  7.2479745445299912e+01  6.0325264623645694e+01  6.0210315353770660e+01  8.6633163711583578e+01  5.2000041742200843e+01  5.1910940169928530e+01  8.4698775099892899e+01  8.5244193090304549e+01  4.9222239623599805e+01  8.3863620735295839e+01  8.6231640266296452e+01  8.5420312051072770e+01  8.4546817873326120e+01  8.6167818585312460e+01  8.4623654980135143e+01  8.6167074479348329e+01  4.8315880862280522e+01  6.6227681959418845e+01  7.5516011857067866e+01  5.0177853644957267e+01  3.3618629439434166e+01  5.0732044127747976e+01  7.5007507091598811e+01  6.0343416420324203e+01  6.4252748070674755e+01  4.1954551370536642e+01  4.0644163597876172e+01  7.4875159724619422e+01  4.6813080258631970e+01  8.1935571939869291e+01  6.7165989618919767e+01  5.1910623142365580e+01  5.6522185929147888e+01  6.7859671191086520e+01  3.3782767865609387e+01  7.7993737892642685e+01  6.1200554576713230e+01  6.9831300964960391e+01  5.1677573635158311e+01  3.5519160787302681e+01  4.4903044341222085e+01  4.3972348554961378e+01  5.6943058711351675e+01  4.2682976058173480e+01  8.1154126273303092e+01  3.6557693778848041e+01  7.5814758845684779e+01  6.3437342767672483e+01  7.0024270846906731e+01  5.0684128467871560e+01  7.2280864321666925e+01  5.9647281227377611e+01  6.7034643824697838e+01  6.4723579807225804e+01  5.5631393993396436e+01  3.7301059216455513e+01  5.9290845975280732e+01  7.9483913326839016e+01  7.4363089524675516e+01  8.5384962822719899e+01  7.0344308654191579e+01  6.9274680500208191e+01  5.6008630456611279e+01  3.9080971134704612e+01  4.2007130188832782e+01  5.8778663987522641e+01  7.9059508971809862e+01  6.1123071767348478e+01  3.5135293698450674e+01  3.8516533067830864e+01  8.1091794114215745e+01  4.4652981669165939e+01  3.2630369356071974e+01  6.7825738879409045e+01  7.5851993062805960e+01  6.5229583689111308e+01  4.4947570296207928e+01  8.4869991605222651e+01  3.6643585582279819e+01  5.1027750754741504e+01  5.9533324860323766e+01  6.4918046198882678e+01  5.6158292340689130e+01  4.6881176668922663e+01  4.3980915814393704e+01  5.4492829020981873e+01  4.7205979357230525e+01  4.7445591724020161e+01  4.4781964020760185e+01  4.8520590512142405e+01  8.4425309216446195e+01  7.8483670882085576e+01  5.2805658999715739e+01  8.3022162365807986e+01  7.5679154152304434e+01  7.2986966380807317e+01  8.0497764543253211e+01  6.2551173831314173e+01  5.8996720880950541e+01  6.5063053027895492e+01  7.2096935150583064e+01  5.7488768229009153e+01  7.7997128183114185e+01  4.7895212602192153e+01  6.5353795746231853e+01  3.2797423501914423e+01  4.7961546520814466e+01  6.8608410976071724e+01  7.7523880919359300e+01  6.2406671882058497e+01  7.0840309585631985e+01  6.1283413919304031e+01  7.1786077233110717e+01  3.4468034392338723e+01  5.1340697204008841e+01  5.3337706765310102e+01  7.9699315333384732e+01  6.6811243840285883e+01  3.7206619023588111e+01  7.9260568175756376e+01  6.3288703220221301e+01  8.4025999882952235e+01  3.3596934396115643e+01  8.4674291434804061e+01  8.4596131080826240e+01  5.5186661096637742e+01  5.0989545332071295e+01  8.4665316390631133e+01  8.5630947271600292e+01  8.2802853119679966e+01  8.4845806410974944e+01  7.1442476636440077e+01  3.6180302546059117e+01  8.0630053426762984e+01  7.5839834737771199e+01  5.6084432679193114e+01  5.0575109149768728e+01  4.7492351307356046e+01  8.5396125200587306e+01  8.4587068736618164e+01  5.8549287586417989e+01  8.5650111684164600e+01  8.3591420576640900e+01  8.4092577645615521e+01  8.5763859835131754e+01  5.9471749910519364e+01  4.9099929743286609e+01  7.1253571954698188e+01  3.4442720450942545e+01  4.9216982991876748e+01  3.6604401421180718e+01  6.9247312081242711e+01  8.7151779648542615e+01  6.6678435340154039e+01  7.2640779910937283e+01  8.3251620099256911e+01  5.9450437208217352e+01  3.3093704590244741e+01  7.1970784062320845e+01  3.8914896159153088e+01  5.2430930007616624e+01  8.4633229644794028e+01  8.2695569595330483e+01  6.2111524805435010e+01  8.7153909844068522e+01  4.3135951028860354e+01  8.5162907520738727e+01  6.3968827993966798e+01  3.2721919780810168e+01  3.6380462281727461e+01  3.7101510609584970e+01  7.2348934474223839e+01  8.1716627221367020e+01  8.1079853870159369e+01  6.8655564175711049e+01  8.5124184447157504e+01  6.0222836408492277e+01  4.9141386103746910e+01  4.9129072507763347e+01  3.3802472710208079e+01  8.4661824849988889e+01  8.4844322291172006e+01  8.4916554642036658e+01  7.5571310441820387e+01  8.1460144520003894e+01  8.4943085951922725e+01  8.3391770971820847e+01  6.6972447878111822e+01  8.7723775560633939e+01  8.7675638143145349e+01  6.1092571258900158e+01  3.5207288151117972e+01  6.1102438317727803e+01  8.1932619249420853e+01  5.6094331470135202e+01  6.4624901588384660e+01  8.7327907695403709e+01  6.1358028814087142e+01  7.3297275487159126e+01  4.1024399802172368e+01  5.6342844146394313e+01  5.5578183993727109e+01  5.6969161789121941e+01  8.5611081830730740e+01  5.0424888263457035e+01  5.1248817394426034e+01  4.9498414584311050e+01  5.1120509256637504e+01  4.7530703776623540e+01  3.2949370745412097e+01  3.1750972497855706e+01  5.2360060208362803e+01  5.4969817044713849e+01  7.5002523925154094e+01  7.4937861538473555e+01  8.7543483073715947e+01  6.6839988758508127e+01  6.4427472215760702e+01  6.0396081577568140e+01  6.0036958725147265e+01  6.0019632468918331e+01  5.9991846830731689e+01  5.9851987642606147e+01  5.9698936049618482e+01  6.1766744704152138e+01  5.9807987333445361e+01  6.0453762393455960e+01  6.3800605014483381e+01  6.1943074372802336e+01  5.8538125646957106e+01  6.0033083712828692e+01  4.4829253331627427e+01  4.6406142640585529e+01  4.4471631101891305e+01  4.2992941177644447e+01  4.3325502015800737e+01  4.1547836287231739e+01  4.2556339354817304e+01  4.1877606695350153e+01  3.8795746591429811e+01  3.7665587613160810e+01  3.4297929064758478e+01  3.4823074928577611e+01  3.4747577718977993e+01  3.5650441796119644e+01  3.5144585107059029e+01  3.6418473584709709e+01  3.6389445275917112e+01  3.5617463938502112e+01  3.7015479991339419e+01  3.6601955495833231e+01  3.7406874228183455e+01  3.6887481927954369e+01  3.8081403393105774e+01  4.0107149713296913e+01  3.8870236693185952e+01  4.4248685943370859e+01  4.6280337661012808e+01  4.5817979980712202e+01  4.8405349061347572e+01  6.7154023428423315e+01  6.6566208078802958e+01  6.5840090208365396e+01  6.7214984256710807e+01  7.3424892298683389e+01  7.7085669174564217e+01  7.4330972865040565e+01  7.6605454871806629e+01  5.3079906083715898e+01  4.9212263468905959e+01  4.8557692347223444e+01  4.9863986460975731e+01  3.5393514052015824e+01  3.7330373494039073e+01  3.5579381728754193e+01  3.6111926417850654e+01  3.4461772803006269e+01  3.3621290351142555e+01  5.3920851394159293e+01  5.4791892466362462e+01  4.7612579486233805e+01  5.1676045873304545e+01  4.9353857190090729e+01  7.5443007914712283e+01  7.2585348873089501e+01  5.9640283057281522e+01  5.9525337959025066e+01  6.1930494651012950e+01  5.9161459800800721e+01  6.1293007803285931e+01  5.9921794931274725e+01  6.3071195230986262e+01  6.5712619296851727e+01  6.4919491478237816e+01  3.7242316302003580e+01  3.9689397811163843e+01  4.2012728729420601e+01  4.0266692591314005e+01  4.1180759750993445e+01  4.2147612593055875e+01  4.6383059915929273e+01  3.7485222317000797e+01  3.8721991871948710e+01  4.4201396922249913e+01  4.3772361123510059e+01  7.1963063574792628e+01  7.6929725351019769e+01  7.3423254610690478e+01  7.7849817170419769e+01  8.0848595374796162e+01  7.0174742057193569e+01  6.4661672497183233e+01  6.8976054615940640e+01  6.6734745780755375e+01  4.7756023603550290e+01  5.2946854415781665e+01  5.4876248691877208e+01  4.8726208396310462e+01  7.1357878376543454e+01  6.8140147665506234e+01  6.8747420575405087e+01  6.5548935175768065e+01  3.5098783362361601e+01  3.4261354472843202e+01  6.1031839855590789e+01  5.9559439481933140e+01  5.8235993436979605e+01  7.0654727001651963e+01  6.8211675207651439e+01  7.1630777658819383e+01  6.8550978445866704e+01  5.3734261277610855e+01  4.9859566640790035e+01  4.9611667029074788e+01  5.1238225682996514e+01  5.0725853361646529e+01  5.2524747427437120e+01  3.6290192650668942e+01  3.5891549960541496e+01  3.6161965098478561e+01  3.5379018585131277e+01  3.6097560567755501e+01  3.6230304142020763e+01  4.4669880114772425e+01  4.3762937858577970e+01  4.6382596354098681e+01  4.3618191858257411e+01  3.8814127223770697e+01  4.5236193672081924e+01  4.5586093640412408e+01  4.6407563224977757e+01  4.0361219519859191e+01  4.3360600027933017e+01  5.6394597275185973e+01  5.8702770340687017e+01  5.6207272488947368e+01  5.4514936814083370e+01  4.0543956212716004e+01  4.4252703793739244e+01  3.8912477665063768e+01  4.4832695996401576e+01  3.7132773412797263e+01  3.4990437187464146e+01  3.6644440632988641e+01  3.5562470722561905e+01  3.6380537473532314e+01  3.5610598867990824e+01  3.6876136287624149e+01  6.2254101559656469e+01  6.2216927391683853e+01  6.4943719367137049e+01  6.5404886788149270e+01  7.0370378659765450e+01  4.8797039524481143e+01  4.9067842084596109e+01  7.0386255467010841e+01  6.2210050211411627e+01  5.8560525918296761e+01  5.7725622861853829e+01  6.1552985462851360e+01  6.8097194445733876e+01  6.6109765854882255e+01  6.3498250263668616e+01  6.3107808162901399e+01  5.7126110750252245e+01  5.2296243764827231e+01  3.7242800239837244e+01  3.7810833209066054e+01  3.7247086226598853e+01  5.8924186828835673e+01  6.0037161746345745e+01  7.5844862936066647e+01  7.8569484888745791e+01  7.2303856558764807e+01  7.6528933804413015e+01  7.2896365812133936e+01  7.2602213998044576e+01  6.6572675322479114e+01  6.6633607074439510e+01  5.3371911767456893e+01  3.7834449036461763e+01  5.5888805268335297e+01  5.8925641303848153e+01  3.4850988366142431e+01  3.5976561306373611e+01  3.5235927977899962e+01  4.2394488870837549e+01  4.4692750695757539e+01  4.9315340149465328e+01  4.5842330979756575e+01  4.5218562971657640e+01  5.0475483875942217e+01  5.9204134237900945e+01  5.9387483646565663e+01  6.0299662528012909e+01  6.0135050874313258e+01  6.3889567210870290e+01  6.3825047994877167e+01  5.3904746091428862e+01  5.0196193446482290e+01  4.7463620221513871e+01  5.0568830669231609e+01  4.7859855602659998e+01  4.5145435243925711e+01  4.6798873114403982e+01  5.5012794122239235e+01  5.1191097531097689e+01  7.5389157140664636e+01  5.2676694472513404e+01  4.9313197644556986e+01  6.0922997930153095e+01  6.4162499988957279e+01  6.8830458073625394e+01  6.6691314558728095e+01  3.6907486777188375e+01  3.4340080661789848e+01  3.6753392488034855e+01  5.9430986332832326e+01  3.5967388909212779e+01  6.0038245970095659e+01  4.1015266937319076e+01  3.7805835551592573e+01  6.1138424745889601e+01  4.5905365013923948e+01  6.7138973377415653e+01  3.4443863420733820e+01  3.4947772558311279e+01  3.4059160560429021e+01  3.3856823091593796e+01  3.4308094803063568e+01  6.0486951108370036e+01  4.0413190118221138e+01  4.3539046943054018e+01  4.1978167101743075e+01  7.5030587617826612e+01  5.7009905864546241e+01  4.9755859844706428e+01  5.0072152087036969e+01  5.1819568364941233e+01  3.4760173262701791e+01  6.8274513788631708e+01  6.8893233340399973e+01  3.5640405786299823e+01  3.5570075948906073e+01  4.3940597131146724e+01  4.3679862954401806e+01  4.1235788745157016e+01  5.5435514760826351e+01  5.9332545395098805e+01  6.0848252160390970e+01  5.8325799619193852e+01  6.1721554853184422e+01  3.7593166467691169e+01  3.7215263527459271e+01  3.7462106549969562e+01  3.7311061357235921e+01  6.8366503303310807e+01  3.7444312708516009e+01  3.9544974147387443e+01  4.0510889001299269e+01  4.6101666770679131e+01  4.6121182787503116e+01  4.6840430127483778e+01  4.4931363613908736e+01  3.7771344467373581e+01  3.6311942399522458e+01  3.7057431087357543e+01  4.7314048526226848e+01  7.2296832751640792e+01  7.3033966817644711e+01  7.4185254140242989e+01  6.2050399594944821e+01  6.5469284163159102e+01  5.0087817694487121e+01  4.8132179865437195e+01  4.7559514207310627e+01  4.8640364648345539e+01  6.3095137023150350e+01  6.0323441295780711e+01  6.0978242832980207e+01  3.4356993074383993e+01  3.4079995248030023e+01  3.4758928823612031e+01  5.1168944530444399e+01  5.2833485501088937e+01  5.1884123083687335e+01  5.0078843659337252e+01  6.5463645515280930e+01  3.6168221240319994e+01  3.6264261172189549e+01  3.6305555849111215e+01  5.9802813951521877e+01  5.9623392360407969e+01  5.9644461471877648e+01  4.1898606195009151e+01  4.3197398071591294e+01  4.4074777877809424e+01  3.7045081777987342e+01  3.5410562949808586e+01  3.5643778467417768e+01  6.0789758873138055e+01  6.2398537376110795e+01  6.1467073191367561e+01  6.0664906654500413e+01  6.0629377990262952e+01  6.1184847482156677e+01  6.0198149228837707e+01  4.4678172266793887e+01  3.5798921310154128e+01  4.3872704912521776e+01  6.7736807415093963e+01  4.9232036981902070e+01  4.8805929813686063e+01  3.4246442497594543e+01  3.5349424851359117e+01  3.6557291957372648e+01  3.8185053121895088e+01  3.6194374903380201e+01  3.5466225177739034e+01  4.8153887095928987e+01  4.6395717845035044e+01  4.7537261451649186e+01  6.0600147219299245e+01  6.0376450093922294e+01  3.6337160156964877e+01  3.7670299089666614e+01  3.8399817876168420e+01  3.9476225133724398e+01  4.5121473848058542e+01  3.7525044821749496e+01  3.8877248159186763e+01  3.7632180820817361e+01  4.6743406368511835e+01  7.4463136682032527e+01  4.8362641608851355e+01  5.1050947626130394e+01  5.0682157636401243e+01  6.6400213531993103e+01  6.7138000487833509e+01  6.5671999462015435e+01  5.0333999826856058e+01  5.2444846953937436e+01  5.0119778703378095e+01  4.4215352053691817e+01  5.3754012951612658e+01  5.4006458216517615e+01  3.7167733450062279e+01  3.7144943225283221e+01  6.3500406547598722e+01  6.3119263788418230e+01  6.4444760171577997e+01  3.7479977097059603e+01  3.5981802788979934e+01  </DataArray> 
</PointData> 
</Piece>
</UnstructuredGrid>
</VTKFile>