<?xml version="1.0"?>
<VTKFile type="UnstructuredGrid"  version="0.1"  >
<UnstructuredGrid>
<Piece  NumberOfPoints="784" NumberOfCells="1320">
<Points>
<DataArray  type="Float64"  NumberOfComponents="3"  format="ascii">266913.131276 586512.314988 0  266738.13716 587762.325998 0  266363.132677 589012.328643 0  266175.641078 590169.601714 0  265666.575631 591040.7699119999 0  264875.64001 591687.766419 0  264900.636161 591845.049083 0  266088.14152 592012.3229499999 0  265561.959259 592661.17101 0  264288.136855 593037.368683 0  263865.194033 593999.8486949999 0  263850.641856 593236.729596 0  263625.634872 592756.525286 0  262689.574249 593299.848918 0  262475.636737 594003.0907310001 0  261934.554452 594340.929792 0  261725.631329 594932.094409 0  261729.256443 595728.498809 0  262138.136044 595012.330523 0  262288.141035 596262.333669 0  261488.994028 597511.480605 0  261234.15567 598316.338928 0  260815.635063 599014.863821 0  261400.643658 599389.7367680001 0  261322.963374 600022.185065 0  261119.455248 600931.061306 0  261607.436504 601293.0629359999 0  260807.446929 602089.899812 0  260025.642878 602988.868697 0  259613.135827 603937.3854499999 0  259050.643123 604100.987861 0  258411.880065 603988.6335979999 0  257764.357469 604449.872569 0  257971.239668 605320.429125 0  258041.396867 605740.635381 0  257188.143339 606987.394312 0  256038.141198 608112.3554550001 0  254788.141633 609087.4026939999 0  253588.140656 609812.362881 0  252338.135706 609737.4048949999 0  251088.138116 609787.404055 0  249963.12851 610287.399466 0  248613.130524 610462.365857 0  247363.132198 610687.407659 0  246113.130532 610837.411551 0  245832.347438 610918.209918 0  245016.946433 610958.5639439999 0  244313.129646 610762.372259 0  244400.622144 611378.093316 0  243939.669208 612460.8930899999 0  242960.649733 611984.892792 0  242170.381438 611919.647351 0  241888.122919 611112.375656 0  241393.380757 610467.6456149999 0  240594.157528 611306.369822 0  240525.621947 610804.648112 0  240363.123632 610512.3745050001 0  239113.123247 610262.374278 0  239813.12126 609037.412459 0  240588.122952 607812.368199 0  241013.119545 606625.9534560001 0  241454.373249 605724.888025 0  242238.120107 604687.3993 0  243088.121248 603462.362766 0  242860.319451 603007.3932640001 0  241563.116617 603812.361344 0  241778.400913 604327.642217 0  242059.837234 604824.879102 0  241475.620201 604923.2402390001 0  241462.182234 605449.881372 0  240906.219606 605674.888222 0  240241.856192 606891.125066 0  239891.734044 607841.012479 0  239048.653431 608724.889805 0  238118.054545 608974.895967 0  238888.111029 607337.406468 0  239738.119992 606212.362729 0  240288.12044 605687.4075229999 0  240380.212307 604729.521696 0  239347.309632 604603.204501 0  238888.112036 604387.408787 0  237913.11173 604687.401386 0  236784.172023 604499.882783 0  236883.408793 603717.08334 0  236154.933927 603595.565605 0  235688.103943 602912.369264 0  235763.108033 601662.366516 0  236363.110805 600412.35884 0  236738.107995 599162.356577 0  236525.607944 598482.2412899999 0  236138.109208 599362.357613 0  235725.063048 600325.4466510001 0  235091.948926 601408.5220979999 0  235188.10921 600312.366344 0  234375.602405 600833.9674270001 0  234663.109308 599912.358011 0  234138.105122 600062.365644 0  233955.307245 599029.561063 0  233338.103791 598387.401556 0  233988.09795 597862.356384 0  235138.101489 596637.3947750001 0  235563.1039 595387.392428 0  236513.103639 594212.356312 0  237163.10684 592987.3929869999 0  238313.103031 591862.3515540001 0  239513.107028 590812.3512640001 0  240638.102135 589787.387271 0  241463.109549 588587.378486 0  242294.489816 587443.735215 0  242913.101099 586512.341804 0  243544.066915 585474.859604 0  243040.448415 585184.975583 0  242438.10214 585337.38015 0  241313.102353 586562.339499 0  240538.107104 587787.382449 0  240114.641085 588588.939407 0  239388.100256 589437.382238 0  238188.104456 590512.346358 0  236938.100507 591362.349798 0  235813.10453 592537.396388 0  234864.502938 593178.7753880001 0  234463.097651 592862.357267 0  235113.0965 591662.3545979999 0  235713.101522 590412.346099 0  235777.688431 589976.7582779999 0  234943.583145 590706.265132 0  234462.482256 591490.2841159999 0  233801.497784 592112.940187 0  233388.099101 591787.394208 0  234013.093099 590437.393065 0  234776.217248 587148.7548100001 0  235163.093726 586562.3486189999 0  235313.098918 585483.229012 0  235250.59732 584662.298153 0  235588.093896 583337.379493 0  236329.432041 582199.858992 0  237188.096234 581462.3349939999 0  237463.088521 580212.335511 0  238350.592558 579057.652616 0  238591.415797 578574.847681 0  238313.094106 577612.328905 0  239229.696732 577695.769664 0  240195.161018 577513.008613 0  240614.996733 577149.8518770001 0  240663.091715 577412.332622 0  240288.092486 578662.334085 0  239942.357258 579508.095811 0  240438.100019 580212.3334220001 0  241338.095553 580387.375355 0  241238.099828 579137.369157 0  241788.097003 577887.370889 0  241983.554649 577241.9220939999 0  242054.178239 576927.8105029999 0  242588.100699 575737.366175 0  243149.324833 574898.583978 0  243695.278626 573919.517981 0  244268.494418 573724.8454239999 0  244995.134063 573930.2767810001 0  245417.314363 573391.601898 0  243450.599125 571859.479773 0  245776.797908 572599.8353060001 0  246779.639852 572973.285167 0  248034.741935 573186.082054 0  249413.10651 573162.3205520001 0  250496.922226 573271.1521899999 0  251613.105126 573237.3551319999 0  252421.824577 572846.032906 0  253256.245022 572580.4733130001 0  253739.471933 571960.9547369999 0  254174.511864 572149.8346569999 0  254484.944333 571684.194807 0  254384.108649 570891.346712 0  254344.002752 570218.26407 0  255025.609604 570829.0294979999 0  255715.005913 570489.264586 0  256218.846343 570774.828355 0  256834.349083 570508.5908 0  257390.092515 570014.308325 0  257624.431042 568493.478911 0  259355.811717 569380.021819 0  260033.372814 569617.066669 0  262679.741751 570320.699974 0  263289.115756 569524.817815 0  263463.114338 570512.301061 0  264638.198419 570687.3443539999 0  265058.220065 571334.378467 0  265447.561421 572077.90485 0  265488.125257 573137.3446020001 0  265131.937715 573963.293593 0  265432.389648 575093.068786 0  265638.122314 576338.029955 0  265750.630817 577371.8281319999 0  265738.570663 578561.9098850001 0  265875.630866 579139.630549 0  266213.129247 579862.311842 0  266563.130472 581112.314509 0  266238.135356 582362.310259 0  265938.12863 583612.320897 0  265738.131342 584762.3210189999 0  266875.638633 585365.358768 0  264018.7239399826 593650.4646671159 0  262236.3944351029 595831.1252656333 0  241846.246678 605206.1436625 0  240200.622106 608424.8903290001 0  240943.4862974102 610939.7757535663 0  236550.6094 599787.3577085 0  238528.1212051503 608102.9081793013 0  244413.4891967989 572609.5960859474 0  236382.0474488751 598808.3067022427 0  235369.601910944 600933.5380148316 0  235413.099011 591037.3503485 0  235446.2251831186 590266.6553871984 0  240475.5921005 578037.3333535 0  240413.173949154 577324.4280286073 0  240574.037899 606283.0066440001 0  263857.9179445 593618.2891454998 0  264153.4303974913 593343.916675058 0  242042.1833925 604946.7714812499 0  241650.3099635 605465.51584375 0  244613.6985165 572229.6575395 0  236631.8579695 598822.2989335 0  235140.029068 600860.444221 0  241767.7287175 604874.0596705 0  242140.15174975 604817.0853906251 0  234781.8558075 600573.1668855001 0  242091.167571125 604881.9284359375 0  234519.3558565 600373.162719 0  254604.8337712102 583989.0014118921 0  250699.5846056537 594617.3297041012 0  250540.4796469513 602258.2940568649 0  248483.7490186612 580334.7345534252 0  258549.2190328319 577893.951823392 0  257067.0067473103 590016.5327808241 0  243285.0921999099 596333.923437875 0  248333.1386145258 589098.0389905117 0  256142.8445072741 595883.3911551933 0  260245.1368072523 583315.2785712298 0  253472.3380211276 578932.2908163272 0  246432.3347504817 599884.5019511909 0  261555.9240922556 588041.186709004 0  247293.1100123104 605823.8307887657 0  246458.2798550911 593168.8646574575 0  252840.0183145193 588226.5564648228 0  249828.2874404451 584740.7888937403 0  255409.5660975206 600458.8956828594 0  260819.9733392385 574219.403683011 0  252584.2262054711 605722.6603825617 0  254049.8830611471 592547.4852571967 0  250015.4356193061 598425.2225922942 0  245872.072249477 577604.9761853142 0  262002.1583249522 579753.4663046852 0  257732.6630933878 586227.970805314 0  250242.5556457866 577017.3316409125 0  244921.6453001869 581816.6358421432 0  256520.3890639471 580904.824006648 0  240779.0970645865 599524.6679555867 0  257100.1829219198 574459.5922545703 0  239912.2630002034 595231.1172704464 0  244703.0875078634 590068.6945953515 0  242549.5490268674 592874.3693043783 0  251586.0465921376 581796.2215047925 0  246643.189997516 596527.447801719 0  251049.7658069622 591057.6752245198 0  253014.5731561695 596998.6601086652 0  238680.2197353724 584542.2309791476 0  259715.365803504 591937.1938619445 0  254097.157218761 575731.4494927844 0  246806.6408589328 586139.0877599345 0  246136.1179750556 602959.471719323 0  253520.7033332401 602835.180253843 0  244125.4295793909 607538.9817227355 0  252546.8895354472 599881.3279113505 0  258289.0983523553 600397.640191779 0  247518.7952199645 583037.3718217331 0  263140.3959879661 582529.2228421422 0  262894.8586894067 585442.3590432997 0  256968.6320599076 593040.7691844478 0  243573.0187527719 600218.2795730785 0  258888.5766127351 595139.7745218446 0  262588.7569809347 576734.8569237856 0  259318.4257992262 580601.2540325444 0  249963.3812725965 607065.7205847671 0  257494.5307999607 583482.5893534871 0  258906.4757205145 572278.8089438241 0  237751.446593475 587300.5805003279 0  255142.4708720699 604956.7580261135 0  258485.4978753244 597756.9250383095 0  255516.7820591553 587791.39641967 0  239758.4692108706 601926.8203218657 0  255873.0092222999 577739.5085867504
[...]
<PointData  Scalars="f_24704-1"> 
<DataArray  type="Float64"  Name="f_24704-1"  format="ascii">4.1852337760672398e+01  4.3154397516484217e+01  4.5134813903981041e+01  4.6937323160753962e+01  4.8280320000588233e+01  5.0351006215544878e+01  5.1008534176321703e+01  5.1457199701465903e+01  5.1491684583594093e+01  5.2076177257499658e+01  5.2447406762139437e+01  5.2300487378168398e+01  5.2518369878686045e+01  5.5098279423171597e+01  5.6539092168766587e+01  5.7816846375902280e+01  5.9354220702125339e+01  6.0843701454987503e+01  6.0807301159825755e+01  6.1232855307695743e+01  6.3369300411547890e+01  6.5085768691824669e+01  6.7092780389135882e+01  6.8109147396210147e+01  6.8648571655974933e+01  6.9926385931156688e+01  7.0291166302591520e+01  7.0991277709989802e+01  7.2301406581240983e+01  7.3084818117046993e+01  7.3274086490492536e+01  7.3750964710207668e+01  7.4928006605476966e+01  7.5856996859727985e+01  7.6032867663246961e+01  7.6941127359887545e+01  7.8187977268931036e+01  7.9495835492250279e+01  8.0426355812990820e+01  8.1233903629261022e+01  8.2440344851355079e+01  8.3575754997094009e+01  8.4595967442700541e+01  8.5492227255596688e+01  8.6289313941810249e+01  8.6457239610142324e+01  8.6889719695037229e+01  8.7443541415604500e+01  8.7871452690911553e+01  8.8068688772760822e+01  8.8107589650234146e+01  8.8145751461877126e+01  8.8132293127393567e+01  8.8216481506731071e+01  8.8419076186527704e+01  8.8403461868106447e+01  8.8406445801233943e+01  8.8489608954795926e+01  8.8269534775108895e+01  8.7561827157002696e+01  8.6745902408739695e+01  8.6069565854599887e+01  8.4981811464534204e+01  8.3228180308477235e+01  8.3043666919082071e+01  8.5277864868973595e+01  8.5856651691932143e+01  8.5989551676523050e+01  8.6140111900072739e+01  8.6354515043294398e+01  8.6641520668758488e+01  8.7683660903779213e+01  8.8069975000564057e+01  8.8284210858896657e+01  8.8331859397083875e+01  8.8096123060407152e+01  8.7519425694651900e+01  8.6927817920864555e+01  8.6289622081079912e+01  8.6626616583636604e+01  8.6919430108715204e+01  8.7345122526956345e+01  8.7476272529577187e+01  8.7463449771862187e+01  8.7507144385860073e+01  8.7475510709946406e+01  8.7182061741777346e+01  8.6264142698636320e+01  8.4783242545138236e+01  8.4599177983092218e+01  8.6066706769335255e+01  8.6705071347600494e+01  8.6902046740558802e+01  8.6748679601648760e+01  8.6831670269143146e+01  8.6672109239671698e+01  8.6653057178646364e+01  8.6440429520625827e+01  8.6344035645548345e+01  8.6058794574698055e+01  8.3808500162516793e+01  8.1447305551652619e+01  7.8421940182876327e+01  7.5531213485354300e+01  7.2781519189591876e+01  7.0457592612860907e+01  6.8578357653578252e+01  6.6790007620439610e+01  6.4968933568771462e+01  6.3305556770725282e+01  6.1337725622637485e+01  6.0401544243014939e+01  6.0744754062107347e+01  6.4085055884207890e+01  6.6655502488527318e+01  6.7658612899312061e+01  6.8667909507526986e+01  7.0392129259740884e+01  7.2643270996324489e+01  7.5121992759559149e+01  7.5808837562797663e+01  7.5816521892521592e+01  7.4779376697878561e+01  7.2688397639034122e+01  7.2279882702500913e+01  7.4183305844936868e+01  7.5460991782141406e+01  7.5899174845163714e+01  7.5903348787662367e+01  7.4540329931620150e+01  7.0027908825785559e+01  6.9305587458376905e+01  6.8211125553317203e+01  6.7607567585928692e+01  6.6696168529727757e+01  6.5587589777346537e+01  6.4238570786678224e+01  6.2917616440584808e+01  6.1774633679985726e+01  6.1297949589616678e+01  6.1008421482829050e+01  6.0929619968395663e+01  6.0671133272928103e+01  6.0591630352223241e+01  6.0601136751990403e+01  6.0983407794282847e+01  6.1584535531721052e+01  6.1704444420044823e+01  6.0613969706154464e+01  5.9052096770104626e+01  5.7831585282991760e+01  5.7078800522201341e+01  5.6748506006626450e+01  5.5274063253389777e+01  5.3963476467157875e+01  5.2778667160051711e+01  5.2408182880001242e+01  5.1278958482070799e+01  4.9786725563374290e+01  4.9747513959776590e+01  4.9349210621200868e+01  4.8528493178293594e+01  4.6489125085955138e+01  4.4047969766740607e+01  4.2567149105531293e+01  4.1012335189611932e+01  3.9729036702687893e+01  3.8496872806998780e+01  3.7798058429264927e+01  3.7356813635447963e+01  3.6395541310361445e+01  3.5815101455223306e+01  3.5746435590782724e+01  3.5659697835996838e+01  3.5184334987205595e+01  3.4808070979106368e+01  3.4752693429147065e+01  3.7718571307269158e+01  4.2984314437498995e+01  3.7540307039740050e+01  3.5219310365636183e+01  3.3344625270026974e+01  3.3543682357419080e+01  3.3482759291199521e+01  3.3218283636699702e+01  3.2892987838374339e+01  3.2589183657620289e+01  3.2615188148335768e+01  3.3087554400335563e+01  3.3854461910624700e+01  3.4641284269416367e+01  3.5377445920030922e+01  3.6322033379023814e+01  3.6850120907140997e+01  3.7524072611680282e+01  3.8845080997565205e+01  4.0481776094266792e+01  4.1475387846156735e+01  4.1427310652536534e+01  4.1347270910926589e+01  5.2407729725541721e+01  6.0999254827154779e+01  8.5581340008435163e+01  8.7981406343259678e+01  8.8393567359892344e+01  8.5553554543118139e+01  8.8265301511219818e+01  4.9620690481479087e+01  8.5338748371619005e+01  8.6863616099034417e+01  7.3765856133596515e+01  7.3001153448927425e+01  6.0728166744285325e+01  6.0608020122747220e+01  8.7238554704689435e+01  5.2407748557393994e+01  5.2311752812962489e+01  8.5295340803142409e+01  8.5842726141713698e+01  4.9619524703178222e+01  8.4468834620907955e+01  8.6863693135302512e+01  8.6015141769989270e+01  8.5142810898327312e+01  8.6800941726304160e+01  8.5219939753754332e+01  8.6800212611500740e+01  4.8768189061384447e+01  6.6652561700433210e+01  7.6042601812699161e+01  5.0392008118105444e+01  3.4913746760881949e+01  5.1288123711643713e+01  7.5550894987141263e+01  6.0674715107952800e+01  6.4734513631251104e+01  4.2250265297141453e+01  4.1323177002046840e+01  7.5260115156499168e+01  4.7138646971914397e+01  8.2509662624347797e+01  6.7527691536450632e+01  5.2218285281059266e+01  5.6948355926279902e+01  6.8289568666624831e+01  3.4018554681939115e+01  7.8534130249029431e+01  6.1659364634571219e+01  7.0109021120898134e+01  5.2042060231636825e+01  3.5913357004345222e+01  4.5533215261809111e+01  4.4329089871301363e+01  5.7295985910202553e+01  4.2943680221203167e+01  8.1722463925792582e+01  3.6830759118515665e+01  7.6335946466490469e+01  6.3639562449269157e+01  7.0501590869809192e+01  5.1043782178595954e+01  7.2803505199983789e+01  5.9717782712739996e+01  6.7512903014042294e+01  6.5192153673864325e+01  5.6046005036964232e+01  3.7685356819238308e+01  5.9675979477347397e+01  8.0021853449525565e+01  7.4900205030977205e+01  8.5983191635596924e+01  7.0850114040763330e+01  6.9786689552981741e+01  5.6366165402636142e+01  3.9389627417563567e+01  4.2271553688773281e+01  5.9229475250725571e+01  7.9610554491441235e+01  6.1542120270458604e+01  3.5408533720402346e+01  3.8752293570596549e+01  8.1659571182518519e+01  4.5064840551347856e+01  3.2788296252711689e+01  6.8297638932899858e+01  7.6381401628775848e+01  6.5699055039876185e+01  4.5371817216020361e+01  8.5491881429817596e+01  3.7326238180321155e+01  5.1387109425332660e+01  5.9964076187331038e+01  6.5314275210537971e+01  5.6584765247402430e+01  4.7192225846268258e+01  4.4267348222231341e+01  5.4942616882484295e+01  4.7588354140341067e+01  4.7778227367035875e+01  4.5106803598453205e+01  4.9026686216996723e+01  8.5019625365726455e+01  7.9032955215853676e+01  5.3223790812222504e+01  8.3607115487356992e+01  7.6220885980245441e+01  7.3237806328251025e+01  8.1060187543690759e+01  6.3007919820727338e+01  5.9431873041155328e+01  6.5498879315821895e+01  7.2624712676003909e+01  5.7919765903149546e+01  7.8515263696008347e+01  4.8336645130350682e+01  6.5844813840937164e+01  3.2987589915396399e+01  4.8196960268887558e+01  6.9074627209586779e+01  7.8060073476775571e+01  6.2558682345052674e+01  7.1327856765963190e+01  6.1524487390902756e+01  7.2270387386727094e+01  3.5231979265493834e+01  5.1438648545202099e+01  5.3702669016455872e+01  8.0262780762458277e+01  6.7082603693330157e+01  3.7455448102484354e+01  7.9816762758469750e+01  6.3705518209360868e+01  8.4637110381780360e+01  3.3797549863253032e+01  8.5269362656822167e+01  8.5191959040224802e+01  5.5633247663340754e+01  5.1356376400525562e+01  8.5261728824903585e+01  8.6235487335279430e+01  8.3393957955351439e+01  8.5469180122620628e+01  7.1950674088980307e+01  3.6427755893937807e+01  8.1199389798068481e+01  7.6367628755911355e+01  5.6542974521359952e+01  5.0937776043236880e+01  4.7803789585913499e+01  8.5995016964827954e+01  8.5183216113239013e+01  5.8951256237986776e+01  8.6267139767599559e+01  8.4183747292787842e+01  8.4686424329930162e+01  8.6371571276707044e+01  5.9911320189994122e+01  4.9482885763493428e+01  7.1743558113980626e+01  3.4644424530738242e+01  4.9553170671144784e+01  3.6783298343801405e+01  6.9728020039784298e+01  8.7765112679662991e+01  6.7158026959615427e+01  7.3169489627356910e+01  8.3849315749105571e+01  5.9847412822812935e+01  3.3206489629188042e+01  7.2484179749469149e+01  3.9263372050808712e+01  5.2848549643391095e+01  8.5252200369358292e+01  8.3295527125142868e+01  6.2554693700909944e+01  8.7767582921448820e+01  4.3379511440856177e+01  8.5784852918763534e+01  6.4411994529266209e+01  3.2911506294137354e+01  3.6632339758333501e+01  3.7346286351856264e+01  7.2879618511290332e+01  8.2294658881159833e+01  8.1650324451815777e+01  6.9146010764175287e+01  8.5722119494782575e+01  6.0628327199235123e+01  4.9530818352068593e+01  4.9517304801483341e+01  3.3917474195116995e+01  8.5258256369203409e+01  8.5441404549571999e+01  8.5513846463797734e+01  7.6097289337505543e+01  8.2038097022550858e+01  8.5545605997012117e+01  8.3983536224764279e+01  6.7443973096330936e+01  8.8346675432520001e+01  8.8297596944547806e+01  6.1546655540864784e+01  3.5404140570208398e+01  6.1529342637844429e+01  8.2513870250063178e+01  5.6474125441545581e+01  6.5092300948654582e+01  8.7945326178937734e+01  6.1776419971331322e+01  7.3823373282593749e+01  4.1287968708170155e+01  5.6804439190242221e+01  5.6036530231090566e+01  5.7432024359788336e+01  8.6240000716347296e+01  5.0783927502972496e+01  5.1627840218220378e+01  4.9841625025180896e+01  5.1497070405565381e+01  4.7856647793198412e+01  3.3159782141480221e+01  3.1911265671898988e+01  5.2731621380211870e+01  5.5420140600997996e+01  7.5591575470318901e+01  7.5524551153886748e+01  8.8162788728139844e+01  6.7297659943359264e+01  6.4841016754731896e+01  6.0812652346560377e+01  6.0480097884880230e+01  6.0439717532861856e+01  6.0413986337501136e+01  6.0268251146547321e+01  6.0106354373811861e+01  6.2218560824612474e+01  6.0213720750580315e+01  6.0846088056326707e+01  6.4254694873286795e+01  6.2364433747961812e+01  5.8996995086018487e+01  6.0494405248374768e+01  4.5151374023050202e+01  4.6731558334411602e+01  4.4752842330724825e+01  4.3289150700194526e+01  4.3588511843663994e+01  4.1829739136464433e+01  4.2817233829114613e+01  4.2154536061618721e+01  3.9079060475816839e+01  3.7929712692848817e+01  3.4486339786514883e+01  3.5003451511288105e+01  3.4933444006669149e+01  3.5826712567907684e+01  3.5326853881809711e+01  3.6586473030888776e+01  3.6559180395158236e+01  3.5794180657244560e+01  3.7197124768266875e+01  3.6773243745314218e+01  3.7606461677078926e+01  3.7064733050383111e+01  3.8324901750831629e+01  4.0418873397936032e+01  3.9153566786416434e+01  4.4880614317819784e+01  4.6627436174485723e+01  4.6302790986674921e+01  4.8908609124126585e+01  6.7301247875371033e+01  6.6959991060305043e+01  6.6282916301840146e+01  6.7635270334746480e+01  7.3965750649278874e+01  7.7628920913103272e+01  7.4755564909372609e+01  7.7111221675425824e+01  5.3363259051484725e+01  4.9515792953754044e+01  4.8676175437431880e+01  4.9892529851274297e+01  3.6022592386547849e+01  3.7875835814952360e+01  3.6240010980798786e+01  3.6678402942563643e+01  3.5561650562996483e+01  3.4893112535057874e+01  5.4408504905845945e+01  5.5257539581672056e+01  4.8131222670695145e+01  5.2132829065148393e+01  4.9930738151042100e+01  7.5983834195599002e+01  7.3103074366806865e+01  5.9769956583564195e+01  5.9825914559978678e+01  6.2186306488712709e+01  5.9557528285135454e+01  6.1560857107124328e+01  6.0032251661618986e+01  6.3543205136768677e+01  6.6219197725179342e+01  6.5412235860901092e+01  3.7553849710485672e+01  3.9987119457416654e+01  4.2291397322931495e+01  4.0525352430037422e+01  4.1855390382380961e+01  4.2420667752690768e+01  4.6789643810681142e+01  3.8248169493324603e+01  3.9256557979393406e+01  4.4579253070102141e+01  4.4313124537633108e+01  7.2260576722055916e+01  7.7353644890800624e+01  7.3640340992785056e+01  7.8349523389424292e+01  8.1417099433043688e+01  7.0676382151082180e+01  6.4875265999928530e+01  6.9396839138368165e+01  6.6992778092520538e+01  4.8016435582778477e+01  5.3321450119571281e+01  5.5249921909537527e+01  4.9022030090274754e+01  7.1863941301982308e+01  6.8560521850114057e+01  6.9248517441876928e+01  6.5924135772747121e+01  3.5365467751745648e+01  3.4541334362423811e+01  6.1413055992152294e+01  6.0005718083800097e+01  5.8692266776294254e+01  7.1030114741341563e+01  6.8524914314114127e+01  7.1969595372886005e+01  6.8782838291322193e+01  5.4107860679186899e+01  5.0237865138531788e+01  4.9887126839367113e+01  5.1453699401772923e+01  5.1130766588683024e+01  5.2949138472279671e+01  3.6627657432939465e+01  3.6247082839938592e+01  3.6524170314462133e+01  3.5960723976143953e+01  3.6405199614238356e+01  3.6496789660418742e+01  4.5206545250059783e+01  4.4436891352843510e+01  4.6971679016866496e+01  4.4205174781521997e+01  3.9471931734097289e+01  4.5639479291809330e+01  4.5862534889429682e+01  4.6718751670029704e+01  4.0819723803726625e+01  4.3643729779715891e+01  5.6687637645932988e+01  5.9148006477666804e+01  5.6566131976054123e+01  5.4764412494681636e+01  4.0785817563613918e+01  4.4562511425879606e+01  3.9365088863297807e+01  4.5093822118669451e+01  3.7417364191463541e+01  3.5212706216144980e+01  3.7118637640870467e+01  3.6044212052757047e+01  3.6628643425882615e+01  3.5843417865451265e+01  3.7129925974300136e+01  6.2277655846107152e+01  6.2425045746630637e+01  6.5126107098683391e+01  6.5785851825817403e+01  7.0843476838694812e+01  4.9142695817947903e+01  4.9439533312910974e+01  7.0879373292938155e+01  6.2391484232568850e+01  5.8930691247521359e+01  5.7949781738217609e+01  6.1819281761270588e+01  6.8561115351138184e+01  6.6586399835262483e+01  6.3958795281516771e+01  6.3556827594396417e+01  5.7571944451190511e+01  5.2738969648364858e+01  3.7740143074950531e+01  3.8199157193611398e+01  3.7512415572608518e+01  5.9346821277083087e+01  6.0309125884411621e+01  7.6175410970089743e+01  7.9079197067316386e+01  7.2830513487753109e+01  7.7069579941462948e+01  7.3426613031565324e+01  7.3093348991795253e+01  6.6977519057407875e+01  6.7112683831132813e+01  5.3461256987345806e+01  3.8151282376331345e+01  5.6299062810908396e+01  5.9353406874709606e+01  3.5301263677365824e+01  3.6208078952342341e+01  3.5460846055221694e+01  4.2647908994478080e+01  4.5072042176211966e+01  4.9699605338189251e+01  4.6510508170755500e+01  4.5598312156151465e+01  5.0859347113173406e+01  5.9631655119013431e+01  5.9796523623717782e+01  6.0747982639666773e+01  6.0544827168656084e+01  6.4222230350458290e+01  6.4169150660743483e+01  5.4191311285460721e+01  5.0555621815473231e+01  4.7760889671933079e+01  5.0914602609858427e+01  4.8186305932820126e+01  4.5410077641018162e+01  4.7207451132874240e+01  5.5447315746967767e+01  5.1644648619036438e+01  7.5759125729966868e+01  5.3068733146084554e+01  4.9372272182547832e+01  6.0991393964707342e+01  6.4219349328219039e+01  6.9231150586288180e+01  6.7066721293652932e+01  3.7118017415618731e+01  3.4542055990172500e+01  3.7002248307939830e+01  5.9851218880789389e+01  3.6162184691872959e+01  6.0428375133894939e+01  4.1345168266700377e+01  3.8086738082796906e+01  6.1579098930048382e+01  4.6472784152664289e+01  6.7419937940885760e+01  3.5416788705444688e+01  3.5885558879761597e+01  3.5215923717138651e+01  3.5109400490194389e+01  3.5358930377217106e+01  6.0673410875667486e+01  4.1171254579291919e+01  4.4041720467066639e+01  4.2604271573668242e+01  7.5323587469243805e+01  5.7271352449957313e+01  5.0029516107945867e+01  5.0355135932465473e+01  5.2146694093745950e+01  3.5096640222007927e+01  6.8427639468372888e+01  6.9083829457644143e+01  3.6001176731194072e+01  3.5930188938177842e+01  4.4604608089644039e+01  4.4369391386363851e+01  4.1742956733567219e+01  5.5663537366759030e+01  5.9353848025405021e+01  6.0938764316718995e+01  5.8400815556443945e+01  6.1906645310141315e+01  3.8200432113440016e+01  3.7500350950653576e+01  3.7858943712839974e+01  3.7627881013036621e+01  6.8819497977132968e+01  3.7771256193057454e+01  3.9770094375416718e+01  4.0727628836426817e+01  4.6572093609059124e+01  4.6429525585284281e+01  4.7211546145373774e+01  4.5509852299952612e+01  3.8322091436542856e+01  3.6949120549441865e+01  3.7629412785774726e+01  4.7930888567622766e+01  7.2538718588687772e+01  7.3233729200100740e+01  7.4420919441482795e+01  6.2496316081949821e+01  6.5866734904038140e+01  5.0474104011047110e+01  4.8293837950931831e+01  4.7807403296986713e+01  4.8772910224994504e+01  6.3157486190009763e+01  6.0436789423280004e+01  6.1093608278539470e+01  3.5314804994641783e+01  3.5109063485583178e+01  3.5456062698239627e+01  5.1312914862105217e+01  5.2978053532429612e+01  5.1857580462359707e+01  5.0145377345759741e+01  6.5608818262772232e+01  3.6342972191508025e+01  3.6467015462637832e+01  3.6486251700127404e+01  6.0191284308777242e+01  6.0018557315408692e+01  6.0033426174483630e+01  4.2208819534887489e+01  4.3452223560387289e+01  4.4319149339957761e+01  3.7288997980195752e+01  3.5595111466151010e+01  3.5850935443689131e+01  6.1188869702743361e+01  6.2828935676327845e+01  6.1878084468243067e+01  6.1075114088891944e+01  6.1030858138868865e+01  6.1612898331693025e+01  6.0586374176040977e+01  4.4944862035004782e+01  3.5980166345491327e+01  4.4508830261687173e+01  6.7900783300806978e+01  4.9288959971119397e+01  4.8855469404388892e+01  3.5277232963330789e+01  3.6256772999587611e+01  3.6948824325056812e+01  3.8512721522299323e+01  3.6972756537449271e+01  3.6261229894988112e+01  4.8754553781320318e+01  4.6993946299816038e+01  4.8168490240809362e+01  6.0673435869976544e+01  6.0455019513633005e+01  3.6673198315211060e+01  3.7990253948951370e+01  3.9276811532699917e+01  4.0204093706708008e+01  4.5585239443431313e+01  3.8340442973301457e+01  3.9338099319268039e+01  3.8197869862111489e+01  4.7160801541167992e+01  7.4697400020580588e+01  4.8676666183233472e+01  5.1423588443895930e+01  5.1022605372783538e+01  6.6769776605223143e+01  6.7538114180995365e+01  6.6039683436727572e+01  5.0566294021721873e+01  5.2681415622969517e+01  5.0251756684976336e+01  4.4465166710822849e+01  5.3844573089936041e+01  5.4258597910529659e+01  3.7539094723466221e+01  3.7397171814309750e+01  6.3569117908317104e+01  6.3135323859927745e+01  6.4532820236674482e+01  3.7806466262753801e+01  3.6193898549801474e+01  </DataArray> 
</PointData> 
</Piece>
</UnstructuredGrid>
</VTKFile>