<?xml version="1.0"?>
<VTKFile type="UnstructuredGrid"  version="0.1"  >
<UnstructuredGrid>
<Piece  NumberOfPoints="784" NumberOfCells="1320">
<Points>
<DataArray  type="Float64"  NumberOfComponents="3"  format="ascii">266913.131276 586512.314988 0  266738.13716 587762.325998 0  266363.132677 589012.328643 0  266175.641078 590169.601714 0  265666.575631 591040.7699119999 0  264875.64001 591687.766419 0  264900.636161 591845.049083 0  266088.14152 592012.3229499999 0  265561.959259 592661.17101 0  264288.136855 593037.368683 0  263865.194033 593999.8486949999 0  263850.641856 593236.729596 0  263625.634872 592756.525286 0  262689.574249 593299.848918 0  262475.636737 594003.0907310001 0  261934.554452 594340.929792 0  261725.631329 594932.094409 0  261729.256443 595728.498809 0  262138.136044 595012.330523 0  262288.141035 596262.333669 0  261488.994028 597511.480605 0  261234.15567 598316.338928 0  260815.635063 599014.863821 0  261400.643658 599389.7367680001 0  261322.963374 600022.185065 0  261119.455248 600931.061306 0  261607.436504 601293.0629359999 0  260807.446929 602089.899812 0  260025.642878 602988.868697 0  259613.135827 603937.3854499999 0  259050.643123 604100.987861 0  258411.880065 603988.6335979999 0  257764.357469 604449.872569 0  257971.239668 605320.429125 0  258041.396867 605740.635381 0  257188.143339 606987.394312 0  256038.141198 608112.3554550001 0  254788.141633 609087.4026939999 0  253588.140656 609812.362881 0  252338.135706 609737.4048949999 0  251088.138116 609787.404055 0  249963.12851 610287.399466 0  248613.130524 610462.365857 0  247363.132198 610687.407659 0  246113.130532 610837.411551 0  245832.347438 610918.209918 0  245016.946433 610958.5639439999 0  244313.129646 610762.372259 0  244400.622144 611378.093316 0  243939.669208 612460.8930899999 0  242960.649733 611984.892792 0  242170.381438 611919.647351 0  241888.122919 611112.375656 0  241393.380757 610467.6456149999 0  240594.157528 611306.369822 0  240525.621947 610804.648112 0  240363.123632 610512.3745050001 0  239113.123247 610262.374278 0  239813.12126 609037.412459 0  240588.122952 607812.368199 0  241013.119545 606625.9534560001 0  241454.373249 605724.888025 0  242238.120107 604687.3993 0  243088.121248 603462.362766 0  242860.319451 603007.3932640001 0  241563.116617 603812.361344 0  241778.400913 604327.642217 0  242059.837234 604824.879102 0  241475.620201 604923.2402390001 0  241462.182234 605449.881372 0  240906.219606 605674.888222 0  240241.856192 606891.125066 0  239891.734044 607841.012479 0  239048.653431 608724.889805 0  238118.054545 608974.895967 0  238888.111029 607337.406468 0  239738.119992 606212.362729 0  240288.12044 605687.4075229999 0  240380.212307 604729.521696 0  239347.309632 604603.204501 0  238888.112036 604387.408787 0  237913.11173 604687.401386 0  236784.172023 604499.882783 0  236883.408793 603717.08334 0  236154.933927 603595.565605 0  235688.103943 602912.369264 0  235763.108033 601662.366516 0  236363.110805 600412.35884 0  236738.107995 599162.356577 0  236525.607944 598482.2412899999 0  236138.109208 599362.357613 0  235725.063048 600325.4466510001 0  235091.948926 601408.5220979999 0  235188.10921 600312.366344 0  234375.602405 600833.9674270001 0  234663.109308 599912.358011 0  234138.105122 600062.365644 0  233955.307245 599029.561063 0  233338.103791 598387.401556 0  233988.09795 597862.356384 0  235138.101489 596637.3947750001 0  235563.1039 595387.392428 0  236513.103639 594212.356312 0  237163.10684 592987.3929869999 0  238313.103031 591862.3515540001 0  239513.107028 590812.3512640001 0  240638.102135 589787.387271 0  241463.109549 588587.378486 0  242294.489816 587443.735215 0  242913.101099 586512.341804 0  243544.066915 585474.859604 0  243040.448415 585184.975583 0  242438.10214 585337.38015 0  241313.102353 586562.339499 0  240538.107104 587787.382449 0  240114.641085 588588.939407 0  239388.100256 589437.382238 0  238188.104456 590512.346358 0  236938.100507 591362.349798 0  235813.10453 592537.396388 0  234864.502938 593178.7753880001 0  234463.097651 592862.357267 0  235113.0965 591662.3545979999 0  235713.101522 590412.346099 0  235777.688431 589976.7582779999 0  234943.583145 590706.265132 0  234462.482256 591490.2841159999 0  233801.497784 592112.940187 0  233388.099101 591787.394208 0  234013.093099 590437.393065 0  234776.217248 587148.7548100001 0  235163.093726 586562.3486189999 0  235313.098918 585483.229012 0  235250.59732 584662.298153 0  235588.093896 583337.379493 0  236329.432041 582199.858992 0  237188.096234 581462.3349939999 0  237463.088521 580212.335511 0  238350.592558 579057.652616 0  238591.415797 578574.847681 0  238313.094106 577612.328905 0  239229.696732 577695.769664 0  240195.161018 577513.008613 0  240614.996733 577149.8518770001 0  240663.091715 577412.332622 0  240288.092486 578662.334085 0  239942.357258 579508.095811 0  240438.100019 580212.3334220001 0  241338.095553 580387.375355 0  241238.099828 579137.369157 0  241788.097003 577887.370889 0  241983.554649 577241.9220939999 0  242054.178239 576927.8105029999 0  242588.100699 575737.366175 0  243149.324833 574898.583978 0  243695.278626 573919.517981 0  244268.494418 573724.8454239999 0  244995.134063 573930.2767810001 0  245417.314363 573391.601898 0  243450.599125 571859.479773 0  245776.797908 572599.8353060001 0  246779.639852 572973.285167 0  248034.741935 573186.082054 0  249413.10651 573162.3205520001 0  250496.922226 573271.1521899999 0  251613.105126 573237.3551319999 0  252421.824577 572846.032906 0  253256.245022 572580.4733130001 0  253739.471933 571960.9547369999 0  254174.511864 572149.8346569999 0  254484.944333 571684.194807 0  254384.108649 570891.346712 0  254344.002752 570218.26407 0  255025.609604 570829.0294979999 0  255715.005913 570489.264586 0  256218.846343 570774.828355 0  256834.349083 570508.5908 0  257390.092515 570014.308325 0  257624.431042 568493.478911 0  259355.811717 569380.021819 0  260033.372814 569617.066669 0  262679.741751 570320.699974 0  263289.115756 569524.817815 0  263463.114338 570512.301061 0  264638.198419 570687.3443539999 0  265058.220065 571334.378467 0  265447.561421 572077.90485 0  265488.125257 573137.3446020001 0  265131.937715 573963.293593 0  265432.389648 575093.068786 0  265638.122314 576338.029955 0  265750.630817 577371.8281319999 0  265738.570663 578561.9098850001 0  265875.630866 579139.630549 0  266213.129247 579862.311842 0  266563.130472 581112.314509 0  266238.135356 582362.310259 0  265938.12863 583612.320897 0  265738.131342 584762.3210189999 0  266875.638633 585365.358768 0  264018.7239399826 593650.4646671159 0  262236.3944351029 595831.1252656333 0  241846.246678 605206.1436625 0  240200.622106 608424.8903290001 0  240943.4862974102 610939.7757535663 0  236550.6094 599787.3577085 0  238528.1212051503 608102.9081793013 0  244413.4891967989 572609.5960859474 0  236382.0474488751 598808.3067022427 0  235369.601910944 600933.5380148316 0  235413.099011 591037.3503485 0  235446.2251831186 590266.6553871984 0  240475.5921005 578037.3333535 0  240413.173949154 577324.4280286073 0  240574.037899 606283.0066440001 0  263857.9179445 593618.2891454998 0  264153.4303974913 593343.916675058 0  242042.1833925 604946.7714812499 0  241650.3099635 605465.51584375 0  244613.6985165 572229.6575395 0  236631.8579695 598822.2989335 0  235140.029068 600860.444221 0  241767.7287175 604874.0596705 0  242140.15174975 604817.0853906251 0  234781.8558075 600573.1668855001 0  242091.167571125 604881.9284359375 0  234519.3558565 600373.162719 0  254604.8337712102 583989.0014118921 0  250699.5846056537 594617.3297041012 0  250540.4796469513 602258.2940568649 0  248483.7490186612 580334.7345534252 0  258549.2190328319 577893.951823392 0  257067.0067473103 590016.5327808241 0  243285.0921999099 596333.923437875 0  248333.1386145258 589098.0389905117 0  256142.8445072741 595883.3911551933 0  260245.1368072523 583315.2785712298 0  253472.3380211276 578932.2908163272 0  246432.3347504817 599884.5019511909 0  261555.9240922556 588041.186709004 0  247293.1100123104 605823.8307887657 0  246458.2798550911 593168.8646574575 0  252840.0183145193 588226.5564648228 0  249828.2874404451 584740.7888937403 0  255409.5660975206 600458.8956828594 0  260819.9733392385 574219.403683011 0  252584.2262054711 605722.6603825617 0  254049.8830611471 592547.4852571967 0  250015.4356193061 598425.2225922942 0  245872.072249477 577604.9761853142 0  262002.1583249522 579753.4663046852 0  257732.6630933878 586227.970805314 0  250242.5556457866 577017.3316409125 0  244921.6453001869 581816.6358421432 0  256520.3890639471 580904.824006648 0  240779.0970645865 599524.6679555867 0  257100.1829219198 574459.5922545703 0  239912.2630002034 595231.1172704464 0  244703.0875078634 590068.6945953515 0  242549.5490268674 592874.3693043783 0  251586.0465921376 581796.2215047925 0  246643.189997516 596527.447801719 0  251049.7658069622 591057.6752245198 0  253014.5731561695 596998.6601086652 0  238680.2197353724 584542.2309791476 0  259715.365803504 591937.1938619445 0  254097.157218761 575731.4494927844 0  246806.6408589328 586139.0877599345 0  246136.1179750556 602959.471719323 0  253520.7033332401 602835.180253843 0  244125.4295793909 607538.9817227355 0  252546.8895354472 599881.3279113505 0  258289.0983523553 600397.640191779 0  247518.7952199645 583037.3718217331 0  263140.3959879661 582529.2228421422 0  262894.8586894067 585442.3590432997 0  256968.6320599076 593040.7691844478 0  243573.0187527719 600218.2795730785 0  258888.5766127351 595139.7745218446 0  262588.7569809347 576734.8569237856 0  259318.4257992262 580601.2540325444 0  249963.3812725965 607065.7205847671 0  257494.5307999607 583482.5893534871 0  258906.4757205145 572278.8089438241 0  237751.446593475 587300.5805003279 0  255142.4708720699 604956.7580261135 0  258485.4978753244 597756.9250383095 0  255516.7820591553 587791.39641967 0  239758.4692108706 601926.8203218657 0  255873.0092222999 577739.5085867504
[...]
<PointData  Scalars="f_32-1"> 
<DataArray  type="Float64"  Name="f_32-1"  format="ascii">4.0713512913600937e+01  4.2065247695848029e+01  4.4138506308664034e+01  4.6157518744058009e+01  4.7656085700155622e+01  4.9552577686471793e+01  5.0180157549364374e+01  5.0182328653769169e+01  5.0526850562293866e+01  5.1962435912356618e+01  5.2986238540728941e+01  5.2434552172222737e+01  5.2079798616150050e+01  5.4153923068141239e+01  5.5413041023878968e+01  5.6516747895573602e+01  5.7812831099111435e+01  5.9026662110395222e+01  5.8458390503821057e+01  5.9415754283273337e+01  6.2055277655209451e+01  6.3774145682469232e+01  6.5571922527634456e+01  6.6421841354472662e+01  6.7034564618937850e+01  6.8588378231278924e+01  6.8973034379574571e+01  6.9960256758810900e+01  7.1548351639455376e+01  7.2447402413696935e+01  7.2619165391701685e+01  7.2907441264011979e+01  7.3736019344059642e+01  7.4512817810215680e+01  7.4675476717468612e+01  7.5659356468447328e+01  7.7000975537793067e+01  7.8428894803673032e+01  7.9589376255409803e+01  8.0376050881831475e+01  8.1554561591477750e+01  8.2697753508948523e+01  8.3697804944377026e+01  8.4549779140697680e+01  8.5310447525411007e+01  8.5461213067006057e+01  8.5815220760964564e+01  8.6263681046971399e+01  8.6691874431662214e+01  8.6976832673214929e+01  8.7088004828066218e+01  8.7188896612883013e+01  8.7109276977703743e+01  8.7138890098585463e+01  8.7487247479228174e+01  8.7444209927276248e+01  8.7426759293937820e+01  8.7592616270722530e+01  8.7173242249520740e+01  8.6373755536860415e+01  8.5576987148658006e+01  8.4847473261935278e+01  8.3792965124136714e+01  8.2144248305498820e+01  8.1864928350776694e+01  8.3844904509118706e+01  8.4369345094238653e+01  8.4472720110865581e+01  8.4699163602656427e+01  8.4982487189894911e+01  8.5306421457210817e+01  8.6322226946786955e+01  8.6793360745174226e+01  8.7235380679149955e+01  8.7373426057887002e+01  8.6849851960124951e+01  8.6156145033715788e+01  8.5594517919498287e+01  8.4989025330614027e+01  8.5408908123456413e+01  8.5721344926807362e+01  8.6173701535994752e+01  8.6333578816955708e+01  8.6301511407470670e+01  8.6390317769327368e+01  8.6377644725898648e+01  8.6053780244823884e+01  8.5160087772834473e+01  8.3808070789060011e+01  8.3653781176786566e+01  8.5073286528129486e+01  8.5797254546550050e+01  8.6064949992079306e+01  8.5901287115887044e+01  8.6114223711268735e+01  8.5919588830277192e+01  8.5972164888005324e+01  8.5783493357151741e+01  8.5714441006102945e+01  8.5378052142206116e+01  8.3092801192775624e+01  8.0632278946987213e+01  7.7247885545737859e+01  7.4042848420147052e+01  7.0867155091047835e+01  6.8626325009050021e+01  6.7087198268689107e+01  6.5712226196806881e+01  6.4239452590825053e+01  6.2917890287018189e+01  6.1388932350546519e+01  6.1333180883944777e+01  6.2130511155812783e+01  6.4255634052173320e+01  6.5776565378181459e+01  6.6520637988338336e+01  6.7398646705088339e+01  6.9004973317021509e+01  7.1425647696902146e+01  7.5104884113996235e+01  7.6659105992431407e+01  7.6683735491092449e+01  7.4534661094732442e+01  7.1528592534673493e+01  7.1077494245231691e+01  7.3615626572413007e+01  7.5642671087075016e+01  7.6585934245554810e+01  7.6623850762330207e+01  7.4181489781777600e+01  6.9081757297401779e+01  6.8370437991205065e+01  6.7407588884215400e+01  6.6909088573441920e+01  6.5957881504279015e+01  6.4675466448316200e+01  6.3304910656222212e+01  6.2049956381626153e+01  6.0754536890585982e+01  6.0177572219762823e+01  5.9856495231274515e+01  5.9572498206062349e+01  5.8850612586926921e+01  5.8635956310944444e+01  5.8661984869920595e+01  5.9446475455453914e+01  6.0253746371920712e+01  6.0407164751187118e+01  5.9522146332274673e+01  5.8494439622584238e+01  5.7284234581064617e+01  5.6576675783749714e+01  5.6272488501832200e+01  5.4718468033281390e+01  5.3220831431246893e+01  5.1656683341310377e+01  5.1165973106105866e+01  5.0094840913530767e+01  4.8677412182844336e+01  4.9228523433952958e+01  4.8135417871338063e+01  4.7156821265521138e+01  4.5436417615075335e+01  4.3400248386722794e+01  4.2064429058643505e+01  4.0593616783912331e+01  3.9342203238998984e+01  3.8073319517843075e+01  3.7265189513724721e+01  3.6825738397773485e+01  3.5778854205614621e+01  3.5004805327927826e+01  3.4826961277081018e+01  3.4722589632821055e+01  3.3970400188837466e+01  3.3536444123361676e+01  3.2504630505642140e+01  3.1001610821794372e+01  3.4291476627759145e+01  3.0487656826567893e+01  3.0963039663392596e+01  3.2583687019347444e+01  3.2195921527379475e+01  3.3685448837406874e+01  3.2115929412831115e+01  3.1372150675106209e+01  3.1199841582909396e+01  3.1628365315797968e+01  3.2255740091845915e+01  3.2970131867412981e+01  3.3770036914850479e+01  3.4736584655723796e+01  3.6010548538998812e+01  3.6274855374185620e+01  3.6432675521312376e+01  3.7704208225570262e+01  4.0102607347558575e+01  4.0926166210756492e+01  4.0096583598152826e+01  4.0051386541071217e+01  5.2844488311535159e+01  5.9024356273850522e+01  8.4348556085343091e+01  8.6803464764035994e+01  8.7432493418019902e+01  8.4511879345049394e+01  8.7191789379287783e+01  4.8873248051691121e+01  8.4371090048234507e+01  8.6009562019826006e+01  7.2963631440175647e+01  7.2038844293428568e+01  5.8975664721616091e+01  5.8681291476457872e+01  8.5889554190910360e+01  5.2845329171031814e+01  5.2516360158205444e+01  8.4078210983304103e+01  8.4610679385738493e+01  4.8870980073369552e+01  8.3511998714609163e+01  8.6008865806681825e+01  8.4516203103649701e+01  8.3938573776188292e+01  8.6056164367786707e+01  8.4009063714498780e+01  8.6056296246365207e+01  4.9709417495600768e+01  6.7071326815296274e+01  7.5295194789442149e+01  5.2553311105112705e+01  3.8052037767383972e+01  5.5565740250594843e+01  7.4278096545796174e+01  6.1579720167374674e+01  6.3857553692468692e+01  4.1939295746899717e+01  4.5221819815141785e+01  7.6042598456131017e+01  4.6099477991180876e+01  8.1193758929148387e+01  6.7829451444777490e+01  5.7203365016111960e+01  5.6577284444654012e+01  6.9964274309667090e+01  3.3673564097065892e+01  7.7160171057633377e+01  6.1634840350484971e+01  7.2083928504113473e+01  5.2394828888787231e+01  3.7802505276187027e+01  4.8791085697368359e+01  4.5717457174580645e+01  5.7719813882241858e+01  4.3341039277161784e+01  8.0290516099276886e+01  3.6631737837970775e+01  7.4687540144435232e+01  6.6283568270628180e+01  6.9137205064987754e+01  5.0281214676581847e+01  7.2080681262012803e+01  6.2581721876415195e+01  6.8339415830700872e+01  6.4657253742719064e+01  5.5533074854406465e+01  3.9562699911511672e+01  5.9415929523724451e+01  7.9251907149197251e+01  7.3962925173181446e+01  8.4753195997892291e+01  7.1548726320800270e+01  6.9091593250169538e+01  5.5881571764771842e+01  3.9622811629666280e+01  4.1020727984941651e+01  5.9904227279782475e+01  7.8297338224264578e+01  6.0238587724391699e+01  3.5021043766031390e+01  3.9987376866857133e+01  8.0423256288355759e+01  4.5375488311797703e+01  3.1282880946440084e+01  6.7075856499291305e+01  7.5078769298219171e+01  6.4629882153957197e+01  5.3748191738518848e+01  8.5118766024273384e+01  4.0138392187265673e+01  5.0242352205681293e+01  6.0498089090476888e+01  6.5555825511936447e+01  5.6357431835099057e+01  4.7095511519385560e+01  4.3155732721719865e+01  5.8194357499130547e+01  4.8335172622268132e+01  4.7827119413054376e+01  4.4134246896772481e+01  5.0203994092874197e+01  8.3785828945226228e+01  7.7691055248333342e+01  5.2724628762681647e+01  8.2389507188200383e+01  7.5066030673104152e+01  7.5524597875760406e+01  7.9712847688351459e+01  6.2295913547435660e+01  5.8599615164498047e+01  6.7488868940868642e+01  7.1775104199047931e+01  5.8025229503188697e+01  7.7837146727586344e+01  5.3247196881995841e+01  6.5118645978937138e+01  3.2083430206158631e+01  5.0998364020779626e+01  6.8850703277812627e+01  7.6471667867902838e+01  6.6026127162875412e+01  7.0097530132460193e+01  6.2499385981994116e+01  7.0479353283214010e+01  3.6463094974750533e+01  5.5291327502083284e+01  5.2913220386040059e+01  7.9050594509217277e+01  6.8494152662286325e+01  3.7806488129676666e+01  7.8540501482611262e+01  6.3520190833393947e+01  8.3865174984166785e+01  3.3155017175345961e+01  8.3997581035770978e+01  8.3946390079465772e+01  5.5088322812625776e+01  5.0559212263935081e+01  8.4035127613046683e+01  8.5079138370814519e+01  8.2205219684972718e+01  8.4641094463680986e+01  7.1147585961038189e+01  3.5990724906364875e+01  8.0122377494422636e+01  7.5043954294133542e+01  5.5959967095062567e+01  5.0149494647963017e+01  4.6570754390090400e+01  8.4727373303786123e+01  8.3972010283467412e+01  5.7789565592868165e+01  8.5243402363793663e+01  8.3070679598244681e+01  8.3511561737401479e+01  8.5318738846298302e+01  5.9913486010651745e+01  4.8663704014884942e+01  7.0355309914293471e+01  3.3970885578951119e+01  4.8415559162889309e+01  3.7451115700220029e+01  6.8461748893536750e+01  8.6522259740620072e+01  6.6173124173066995e+01  7.2486296084847524e+01  8.2833722428394978e+01  6.1112489114802685e+01  3.0489356743781649e+01  7.1543753888405860e+01  3.9741469078620113e+01  5.1859807167895411e+01  8.4334295855036984e+01  8.2393338204489169e+01  6.1365837533795343e+01  8.6533166448968316e+01  4.4178015888611242e+01  8.4909076441042757e+01  6.3205957787907437e+01  3.2233587032372327e+01  3.6143431038766217e+01  3.7326758139488710e+01  7.2123831414254397e+01  8.1181398925465658e+01  8.0340629474415039e+01  6.8067631970100379e+01  8.4473537761556699e+01  5.9293489239754834e+01  4.8577916956378168e+01  4.8547367269933602e+01  3.2191226682096101e+01  8.4043311551096195e+01  8.4214279012204102e+01  8.4277605057625735e+01  7.4756057716204353e+01  8.0870370684174901e+01  8.4430328499899090e+01  8.2871492337448046e+01  6.6367918216638486e+01  8.7332837547886825e+01  8.7218391455539830e+01  6.0924921479769687e+01  3.5214243183216659e+01  6.0345592337262147e+01  8.1350692574585224e+01  5.5414296598933326e+01  6.4160372296304431e+01  8.6803748750600832e+01  6.2604903741525170e+01  7.2755298566839940e+01  4.0676381974314786e+01  5.6292152465150480e+01  5.5542237602749303e+01  5.6834511688214334e+01  8.5370816147916784e+01  4.9975468461363008e+01  5.1052115331696236e+01  4.8932519984088657e+01  5.0887524535761308e+01  4.6940426677890684e+01  3.2816489680457806e+01  3.0609378844364965e+01  5.1733962866741273e+01  5.4776163172049003e+01  7.6127146276834523e+01  7.5989438678733023e+01  8.7022237303348945e+01  6.6477087378956512e+01  6.4617667583544460e+01  6.0513329074816347e+01  6.0149490146211214e+01  6.0676982129173560e+01  6.1678289501315582e+01  6.0744975291449968e+01  6.1320369154076040e+01  6.3224969125659428e+01  6.1611910844515485e+01  6.2327706177219838e+01  6.4361332734028949e+01  6.3316369813211992e+01  5.8464123697911276e+01  6.0042486268318164e+01  4.4355820276018640e+01  4.6343044073663179e+01  4.4521702705894796e+01  4.2716569837452482e+01  4.3552112979761716e+01  4.1358023185664777e+01  4.2889850289992943e+01  4.2219654902546928e+01  3.8886467827883450e+01  3.7669249614870935e+01  3.3750981268133103e+01  3.4211688977641657e+01  3.4285633316322411e+01  3.5423498905412693e+01  3.4882831642585899e+01  3.6201591975580833e+01  3.6598419772898481e+01  3.5721127468237349e+01  3.6365600825416742e+01  3.6673668906035502e+01  3.7115134685913013e+01  3.6645387344445382e+01  3.7625183654993698e+01  4.0910877417155426e+01  3.8908803971396949e+01  4.9802501637774640e+01  4.6529114427708024e+01  4.7594109933615663e+01  5.1630037971908820e+01  6.9930030493735870e+01  6.7800357876495283e+01  6.6270809480568758e+01  6.8066778436279677e+01  7.3494777097934019e+01  7.6493263199697239e+01  7.5258416122420499e+01  7.6556318526581776e+01  5.5058325781026006e+01  5.0313544337317417e+01  5.2113313284236611e+01  5.4613320489780470e+01  3.8068643943728759e+01  3.9761224576100254e+01  3.7406474292571559e+01  3.8695688100781105e+01  3.8329152158037054e+01  3.7802942606478780e+01  5.5338079314858604e+01  5.8611582741618079e+01  5.4498621210339486e+01  5.6904615248471927e+01  5.2905697998785151e+01  7.4966463382567852e+01  7.2397450276590448e+01  6.2306752932701087e+01  6.0415380869690566e+01  6.3737875183878167e+01  5.9848445815598552e+01  6.3364642992588600e+01  6.1969444787415071e+01  6.2930103512123829e+01  6.6177091891091919e+01  6.4560265710007968e+01  3.9609684836194823e+01  4.0271588792529386e+01  4.1372638016690352e+01  4.1173553910892011e+01  4.4716624292402351e+01  4.4155634418641540e+01  4.8113978716221688e+01  4.1975631904790013e+01  4.2522940393973862e+01  4.6192095142035782e+01  4.7121457620624781e+01  7.4299018867263712e+01  7.7705587904622746e+01  7.6134603128557700e+01  7.7915766683351393e+01  8.0251721827939718e+01  6.9661470961249634e+01  6.7285673020686986e+01  6.8794713965364537e+01  6.8423295064403050e+01  5.5534052826735277e+01  5.8165607514439444e+01  5.7429151643148252e+01  5.4969626631150838e+01  7.2089008855910535e+01  7.0291566995972588e+01  6.9533081138079041e+01  6.8441247226830029e+01  3.5085285993088775e+01  3.3722937778867795e+01  6.1687026233502579e+01  6.1251754255289498e+01  5.9927108976692892e+01  7.1979390613338609e+01  7.0404730033359399e+01  7.3709934421494481e+01  7.0787193215005843e+01  5.4435663446317591e+01  5.0379743590367895e+01  5.1603060941555356e+01  5.3065495770867905e+01  5.0628257009651925e+01  5.2252655174021385e+01  3.8411874971884558e+01  3.6953721925317375e+01  3.8802541074260475e+01  3.7199756626745852e+01  3.7759989578727890e+01  3.7864855631498074e+01  4.7042503292012007e+01  5.1552427677640239e+01  4.9410128355668753e+01  5.1835066643907652e+01  4.2097249391719899e+01  4.6963597262494879e+01  4.6731750761846463e+01  4.8237400698718140e+01  4.2525460639324010e+01  4.4919598276689200e+01  5.8322852500709082e+01  5.8939822454458451e+01  5.6737228254441561e+01  5.7889082203708732e+01  4.1391730644348847e+01  4.4341559764873189e+01  4.1488562971750255e+01  4.5248489913080817e+01  3.8355300500598858e+01  3.4655479453999824e+01  3.8404001753577866e+01  3.6497799099929466e+01  3.6290218636418956e+01  3.5390793701513147e+01  3.7203348076439745e+01  6.7070572883148571e+01  6.3928583369877224e+01  6.8124824819606687e+01  6.6218543315301375e+01  6.9787581625930684e+01  4.8762966321660329e+01  4.9419688395564499e+01  7.0295854475098096e+01  6.4267265905703866e+01  6.0461948946722032e+01  6.0206837498514808e+01  6.2950380883786224e+01  7.0036943738176689e+01  6.7907440393126848e+01  6.3520151473837906e+01  6.3658455277516907e+01  5.7492276225213203e+01  5.2711727433638330e+01  4.0733782767294549e+01  3.9095271758473800e+01  3.8064627017406458e+01  5.8748194915944190e+01  6.0978562725093425e+01  7.7380162424248567e+01  7.8539635598822699e+01  7.2701952127956147e+01  7.5771981464268393e+01  7.2783047573763895e+01  7.3336197238729355e+01  6.9240047311527533e+01  6.7826517906782001e+01  5.8790923110958097e+01  3.8698366411319562e+01  5.9794179096916423e+01  5.8487593854387441e+01  3.5308793868622701e+01  3.6970348607429997e+01  3.5244321659280871e+01  4.2537284757111330e+01  4.4822930039957861e+01  5.5856775151976450e+01  5.2330646614325040e+01  5.3562160595365953e+01  5.0176004816316947e+01  6.0170841522101689e+01  6.0785167931245766e+01  6.0725590775598818e+01  6.1522926659030247e+01  6.5272314086229500e+01  6.4759997554673276e+01  5.5260323473834973e+01  4.9877165981554128e+01  4.9490048841751516e+01  5.0655979259602724e+01  4.9133134027905633e+01  4.5916124783677404e+01  4.6979464699635031e+01  5.5852794224126775e+01  5.2879049365525603e+01  7.6620113203021305e+01  5.5612378882192438e+01  5.2756334805174625e+01  6.3910391015427180e+01  6.8587106970119137e+01  6.8738700190677847e+01  6.7377666400090092e+01  3.7656513231042538e+01  3.3962834990526751e+01  3.6807389707476830e+01  6.0500854671496583e+01  3.6780803625370908e+01  6.1824459614064551e+01  4.2080053160406131e+01  3.8152724523143576e+01  6.1766821181367447e+01  5.0862324574987490e+01  6.9073767715733609e+01  3.8157346840798837e+01  3.8522241645704035e+01  3.7735712968742611e+01  3.8077822796878223e+01  3.7570900989793010e+01  6.2688111319761362e+01  4.5114036586852947e+01  4.7060829342952204e+01  4.6437519152370712e+01  7.6963593392828656e+01  6.0041927629665999e+01  5.6454040148987424e+01  5.6033159814365753e+01  5.6207546570386100e+01  3.5039386847888764e+01  7.1075587344816114e+01  7.1487399035553182e+01  3.8582426830837299e+01  3.8052941441903414e+01  4.9408824478206263e+01  5.0469236544476999e+01  4.3771733635554995e+01  5.9073268098660122e+01  6.2619523461155602e+01  6.3538802773000938e+01  6.1513245714432273e+01  6.3703235993868624e+01  4.0640433199733643e+01  3.9012632351187442e+01  3.9157765430906920e+01  3.8787373964521429e+01  7.0388652615974394e+01  3.9298674006092980e+01  4.0647682268786113e+01  4.1282037985708058e+01  5.4095694511337946e+01  5.4660358519364841e+01  5.4790989150868974e+01  5.3096893882633978e+01  4.1414777641087326e+01  3.9153422065447884e+01  4.0577671075090336e+01  5.1334925183776711e+01  7.5049940217631331e+01  7.5940055432020813e+01  7.6604620599638181e+01  6.2525518049038041e+01  6.8296397562557971e+01  5.4404562109093192e+01  5.1715637473101111e+01  5.0421320167794519e+01  5.2197073420956769e+01  6.7533969007260154e+01  6.2207111134790182e+01  6.3011284043493909e+01  3.7572274650956494e+01  3.7322389493207922e+01  3.6590587741540368e+01  5.3765343339571437e+01  5.7003170713491528e+01  5.7991177327476649e+01  5.3586626422894497e+01  6.8754958090621372e+01  3.6793404201681476e+01  3.7557713521390156e+01  3.7318415930443784e+01  6.1707191718848172e+01  6.1292645155092245e+01  6.1461432783924778e+01  4.3382104511476456e+01  4.4541438912612044e+01  4.5020055641050753e+01  3.7707561200630188e+01  3.5537676411059770e+01  3.6110899039187395e+01  6.2450218444684374e+01  6.3476263306187349e+01  6.2937064165881495e+01  6.2060353645012597e+01  6.2212611594892216e+01  6.2186561040439280e+01  6.2066120898017793e+01  4.5188112976416910e+01  3.6253927288072859e+01  5.0882879059275155e+01  7.0391820946884323e+01  5.3047999377230440e+01  5.2639012040514849e+01  3.7971869229709938e+01  3.8920561922966456e+01  3.8826145238744061e+01  3.9808316295507723e+01  3.9533223451657108e+01  3.8257539121546550e+01  5.3883130260076115e+01  5.3480927537023170e+01  5.2660673169689815e+01  6.3482997233889236e+01  6.2856364626368638e+01  3.8915923782540339e+01  3.9286512280187388e+01  4.3104249607521865e+01  4.3155314852749996e+01  4.7806375757618149e+01  4.1708460146490900e+01  4.2005011691341601e+01  4.1585430862311355e+01  4.8310017285006353e+01  7.6882088978927214e+01  5.5736745041317953e+01  5.7014488483222522e+01  5.5264250868542348e+01  6.9194898043924113e+01  6.9671855396928038e+01  6.8667369064274354e+01  5.2258045475627505e+01  5.4162553598074659e+01  5.2707554485938417e+01  4.5388145742225767e+01  5.9258793138844752e+01  5.6233445029948903e+01  3.9611526368730772e+01  3.8274078718310911e+01  6.7976318229736961e+01  6.8062217336126679e+01  6.8628357881205872e+01  3.8436735667375281e+01  3.6941391884507034e+01  </DataArray> 
</PointData> 
</Piece>
</UnstructuredGrid>
</VTKFile>