<?xml version="1.0"?>
<VTKFile type="UnstructuredGrid"  version="0.1"  >
<UnstructuredGrid>
<Piece  NumberOfPoints="784" NumberOfCells="1320">
<Points>
<DataArray  type="Float64"  NumberOfComponents="3"  format="ascii">266913.131276 586512.314988 0  266738.13716 587762.325998 0  266363.132677 589012.328643 0  266175.641078 590169.601714 0  265666.575631 591040.7699119999 0  264875.64001 591687.766419 0  264900.636161 591845.049083 0  266088.14152 592012.3229499999 0  265561.959259 592661.17101 0  264288.136855 593037.368683 0  263865.194033 593999.8486949999 0  263850.641856 593236.729596 0  263625.634872 592756.525286 0  262689.574249 593299.848918 0  262475.636737 594003.0907310001 0  261934.554452 594340.929792 0  261725.631329 594932.094409 0  261729.256443 595728.498809 0  262138.136044 595012.330523 0  262288.141035 596262.333669 0  261488.994028 597511.480605 0  261234.15567 598316.338928 0  260815.635063 599014.863821 0  261400.643658 599389.7367680001 0  261322.963374 600022.185065 0  261119.455248 600931.061306 0  261607.436504 601293.0629359999 0  260807.446929 602089.899812 0  260025.642878 602988.868697 0  259613.135827 603937.3854499999 0  259050.643123 604100.987861 0  258411.880065 603988.6335979999 0  257764.357469 604449.872569 0  257971.239668 605320.429125 0  258041.396867 605740.635381 0  257188.143339 606987.394312 0  256038.141198 608112.3554550001 0  254788.141633 609087.4026939999 0  253588.140656 609812.362881 0  252338.135706 609737.4048949999 0  251088.138116 609787.404055 0  249963.12851 610287.399466 0  248613.130524 610462.365857 0  247363.132198 610687.407659 0  246113.130532 610837.411551 0  245832.347438 610918.209918 0  245016.946433 610958.5639439999 0  244313.129646 610762.372259 0  244400.622144 611378.093316 0  243939.669208 612460.8930899999 0  242960.649733 611984.892792 0  242170.381438 611919.647351 0  241888.122919 611112.375656 0  241393.380757 610467.6456149999 0  240594.157528 611306.369822 0  240525.621947 610804.648112 0  240363.123632 610512.3745050001 0  239113.123247 610262.374278 0  239813.12126 609037.412459 0  240588.122952 607812.368199 0  241013.119545 606625.9534560001 0  241454.373249 605724.888025 0  242238.120107 604687.3993 0  243088.121248 603462.362766 0  242860.319451 603007.3932640001 0  241563.116617 603812.361344 0  241778.400913 604327.642217 0  242059.837234 604824.879102 0  241475.620201 604923.2402390001 0  241462.182234 605449.881372 0  240906.219606 605674.888222 0  240241.856192 606891.125066 0  239891.734044 607841.012479 0  239048.653431 608724.889805 0  238118.054545 608974.895967 0  238888.111029 607337.406468 0  239738.119992 606212.362729 0  240288.12044 605687.4075229999 0  240380.212307 604729.521696 0  239347.309632 604603.204501 0  238888.112036 604387.408787 0  237913.11173 604687.401386 0  236784.172023 604499.882783 0  236883.408793 603717.08334 0  236154.933927 603595.565605 0  235688.103943 602912.369264 0  235763.108033 601662.366516 0  236363.110805 600412.35884 0  236738.107995 599162.356577 0  236525.607944 598482.2412899999 0  236138.109208 599362.357613 0  235725.063048 600325.4466510001 0  235091.948926 601408.5220979999 0  235188.10921 600312.366344 0  234375.602405 600833.9674270001 0  234663.109308 599912.358011 0  234138.105122 600062.365644 0  233955.307245 599029.561063 0  233338.103791 598387.401556 0  233988.09795 597862.356384 0  235138.101489 596637.3947750001 0  235563.1039 595387.392428 0  236513.103639 594212.356312 0  237163.10684 592987.3929869999 0  238313.103031 591862.3515540001 0  239513.107028 590812.3512640001 0  240638.102135 589787.387271 0  241463.109549 588587.378486 0  242294.489816 587443.735215 0  242913.101099 586512.341804 0  243544.066915 585474.859604 0  243040.448415 585184.975583 0  242438.10214 585337.38015 0  241313.102353 586562.339499 0  240538.107104 587787.382449 0  240114.641085 588588.939407 0  239388.100256 589437.382238 0  238188.104456 590512.346358 0  236938.100507 591362.349798 0  235813.10453 592537.396388 0  234864.502938 593178.7753880001 0  234463.097651 592862.357267 0  235113.0965 591662.3545979999 0  235713.101522 590412.346099 0  235777.688431 589976.7582779999 0  234943.583145 590706.265132 0  234462.482256 591490.2841159999 0  233801.497784 592112.940187 0  233388.099101 591787.394208 0  234013.093099 590437.393065 0  234776.217248 587148.7548100001 0  235163.093726 586562.3486189999 0  235313.098918 585483.229012 0  235250.59732 584662.298153 0  235588.093896 583337.379493 0  236329.432041 582199.858992 0  237188.096234 581462.3349939999 0  237463.088521 580212.335511 0  238350.592558 579057.652616 0  238591.415797 578574.847681 0  238313.094106 577612.328905 0  239229.696732 577695.769664 0  240195.161018 577513.008613 0  240614.996733 577149.8518770001 0  240663.091715 577412.332622 0  240288.092486 578662.334085 0  239942.357258 579508.095811 0  240438.100019 580212.3334220001 0  241338.095553 580387.375355 0  241238.099828 579137.369157 0  241788.097003 577887.370889 0  241983.554649 577241.9220939999 0  242054.178239 576927.8105029999 0  242588.100699 575737.366175 0  243149.324833 574898.583978 0  243695.278626 573919.517981 0  244268.494418 573724.8454239999 0  244995.134063 573930.2767810001 0  245417.314363 573391.601898 0  243450.599125 571859.479773 0  245776.797908 572599.8353060001 0  246779.639852 572973.285167 0  248034.741935 573186.082054 0  249413.10651 573162.3205520001 0  250496.922226 573271.1521899999 0  251613.105126 573237.3551319999 0  252421.824577 572846.032906 0  253256.245022 572580.4733130001 0  253739.471933 571960.9547369999 0  254174.511864 572149.8346569999 0  254484.944333 571684.194807 0  254384.108649 570891.346712 0  254344.002752 570218.26407 0  255025.609604 570829.0294979999 0  255715.005913 570489.264586 0  256218.846343 570774.828355 0  256834.349083 570508.5908 0  257390.092515 570014.308325 0  257624.431042 568493.478911 0  259355.811717 569380.021819 0  260033.372814 569617.066669 0  262679.741751 570320.699974 0  263289.115756 569524.817815 0  263463.114338 570512.301061 0  264638.198419 570687.3443539999 0  265058.220065 571334.378467 0  265447.561421 572077.90485 0  265488.125257 573137.3446020001 0  265131.937715 573963.293593 0  265432.389648 575093.068786 0  265638.122314 576338.029955 0  265750.630817 577371.8281319999 0  265738.570663 578561.9098850001 0  265875.630866 579139.630549 0  266213.129247 579862.311842 0  266563.130472 581112.314509 0  266238.135356 582362.310259 0  265938.12863 583612.320897 0  265738.131342 584762.3210189999 0  266875.638633 585365.358768 0  264018.7239399826 593650.4646671159 0  262236.3944351029 595831.1252656333 0  241846.246678 605206.1436625 0  240200.622106 608424.8903290001 0  240943.4862974102 610939.7757535663 0  236550.6094 599787.3577085 0  238528.1212051503 608102.9081793013 0  244413.4891967989 572609.5960859474 0  236382.0474488751 598808.3067022427 0  235369.601910944 600933.5380148316 0  235413.099011 591037.3503485 0  235446.2251831186 590266.6553871984 0  240475.5921005 578037.3333535 0  240413.173949154 577324.4280286073 0  240574.037899 606283.0066440001 0  263857.9179445 593618.2891454998 0  264153.4303974913 593343.916675058 0  242042.1833925 604946.7714812499 0  241650.3099635 605465.51584375 0  244613.6985165 572229.6575395 0  236631.8579695 598822.2989335 0  235140.029068 600860.444221 0  241767.7287175 604874.0596705 0  242140.15174975 604817.0853906251 0  234781.8558075 600573.1668855001 0  242091.167571125 604881.9284359375 0  234519.3558565 600373.162719 0  254604.8337712102 583989.0014118921 0  250699.5846056537 594617.3297041012 0  250540.4796469513 602258.2940568649 0  248483.7490186612 580334.7345534252 0  258549.2190328319 577893.951823392 0  257067.0067473103 590016.5327808241 0  243285.0921999099 596333.923437875 0  248333.1386145258 589098.0389905117 0  256142.8445072741 595883.3911551933 0  260245.1368072523 583315.2785712298 0  253472.3380211276 578932.2908163272 0  246432.3347504817 599884.5019511909 0  261555.9240922556 588041.186709004 0  247293.1100123104 605823.8307887657 0  246458.2798550911 593168.8646574575 0  252840.0183145193 588226.5564648228 0  249828.2874404451 584740.7888937403 0  255409.5660975206 600458.8956828594 0  260819.9733392385 574219.403683011 0  252584.2262054711 605722.6603825617 0  254049.8830611471 592547.4852571967 0  250015.4356193061 598425.2225922942 0  245872.072249477 577604.9761853142 0  262002.1583249522 579753.4663046852 0  257732.6630933878 586227.970805314 0  250242.5556457866 577017.3316409125 0  244921.6453001869 581816.6358421432 0  256520.3890639471 580904.824006648 0  240779.0970645865 599524.6679555867 0  257100.1829219198 574459.5922545703 0  239912.2630002034 595231.1172704464 0  244703.0875078634 590068.6945953515 0  242549.5490268674 592874.3693043783 0  251586.0465921376 581796.2215047925 0  246643.189997516 596527.447801719 0  251049.7658069622 591057.6752245198 0  253014.5731561695 596998.6601086652 0  238680.2197353724 584542.2309791476 0  259715.365803504 591937.1938619445 0  254097.157218761 575731.4494927844 0  246806.6408589328 586139.0877599345 0  246136.1179750556 602959.471719323 0  253520.7033332401 602835.180253843 0  244125.4295793909 607538.9817227355 0  252546.8895354472 599881.3279113505 0  258289.0983523553 600397.640191779 0  247518.7952199645 583037.3718217331 0  263140.3959879661 582529.2228421422 0  262894.8586894067 585442.3590432997 0  256968.6320599076 593040.7691844478 0  243573.0187527719 600218.2795730785 0  258888.5766127351 595139.7745218446 0  262588.7569809347 576734.8569237856 0  259318.4257992262 580601.2540325444 0  249963.3812725965 607065.7205847671 0  257494.5307999607 583482.5893534871 0  258906.4757205145 572278.8089438241 0  237751.446593475 587300.5805003279 0  255142.4708720699 604956.7580261135 0  258485.4978753244 597756.9250383095 0  255516.7820591553 587791.39641967 0  239758.4692108706 601926.8203218657 0  255873.0092222999 577739.5085867504
[...]
<PointData  Scalars="f_24704-1"> 
<DataArray  type="Float64"  Name="f_24704-1"  format="ascii">4.1748243154703751e+01  4.3056392510045704e+01  4.5044424154231251e+01  4.6857448843259739e+01  4.8202513765591931e+01  5.0266379922598148e+01  5.0932238164628330e+01  5.1380525417262476e+01  5.1418449216685730e+01  5.2021484854485578e+01  5.2407221300397659e+01  5.2250878419616306e+01  5.2448103072950182e+01  5.4998959163870374e+01  5.6454411876221258e+01  5.7698601392462201e+01  5.9230498295962448e+01  6.0740118903030144e+01  6.0706512374138214e+01  6.1140094638924012e+01  6.3280614135208957e+01  6.5001214671338658e+01  6.7005330304503318e+01  6.8032629350148540e+01  6.8576516444963801e+01  6.9862238813074256e+01  7.0230320006666844e+01  7.0937643437265649e+01  7.2256700750706315e+01  7.3044250884422681e+01  7.3230533646929928e+01  7.3694283304866573e+01  7.4857297511676421e+01  7.5786703764445107e+01  7.5963103157738530e+01  7.6871259957581955e+01  7.8121598265269967e+01  7.9435557250534131e+01  8.0371298717555078e+01  8.1178095371349954e+01  8.2384702474244037e+01  8.3521339667395580e+01  8.4540127127352676e+01  8.5433943675199572e+01  8.6227922536615878e+01  8.6395007603100126e+01  8.6825388688772449e+01  8.7378271049908278e+01  8.7806686070994331e+01  8.8005059251952360e+01  8.8044203298200188e+01  8.8082580204353135e+01  8.8068436453007081e+01  8.8152885013457805e+01  8.8357973541629875e+01  8.8342125171263078e+01  8.8345170575433613e+01  8.8429689816670148e+01  8.8206633736716370e+01  8.7494213096209862e+01  8.6676926825435743e+01  8.6000860794104227e+01  8.4914892641663684e+01  8.3165149361355375e+01  8.2978857361965964e+01  8.5210160179899447e+01  8.5785286113912278e+01  8.5916756104446677e+01  8.6067310461738231e+01  8.6281229990220979e+01  8.6568009872892716e+01  8.7611961483965771e+01  8.8001880200874481e+01  8.8220115477568328e+01  8.8268949668458603e+01  8.8028541169298109e+01  8.7446681513769363e+01  8.6854910548282845e+01  8.6221078759599663e+01  8.6567633640116682e+01  8.6863682255417700e+01  8.7290202537983888e+01  8.7420237398958236e+01  8.7408110956023251e+01  8.7452754877183153e+01  8.7422070993940139e+01  8.7130608016268283e+01  8.6214910264412453e+01  8.4732085748301259e+01  8.4551562125827161e+01  8.6023970445365734e+01  8.6663131047022091e+01  8.6859666113973446e+01  8.6707227198927072e+01  8.6791036170035369e+01  8.6632235978093661e+01  8.6614256386063744e+01  8.6403300131769967e+01  8.6308249499172163e+01  8.6022152667854201e+01  8.3767376009791533e+01  8.1399671608793497e+01  7.8360457379303767e+01  7.5454213164846195e+01  7.2689320211506342e+01  7.0364724905914542e+01  6.8497422665175563e+01  6.6728390264923163e+01  6.4913807593511606e+01  6.3246731296783267e+01  6.1259184162443240e+01  6.0417680335784148e+01  6.0783911603195001e+01  6.4057714986056084e+01  6.6584475499754646e+01  6.7572321796614688e+01  6.8570584040535863e+01  7.0287521021990585e+01  7.2553795390439447e+01  7.5078089158141367e+01  7.5782025879492238e+01  7.5789951700721545e+01  7.4727466543718705e+01  7.2600457314258662e+01  7.2190596530817146e+01  7.4124200710419046e+01  7.5424634435161835e+01  7.5871443021780095e+01  7.5875756070682726e+01  7.4487360377761377e+01  6.9940898000851362e+01  6.9220833374844247e+01  6.8133564078451769e+01  6.7535481954711770e+01  6.6627192658189941e+01  6.5515073274757725e+01  6.4163594070367310e+01  6.2843413828169801e+01  6.1693211477278474e+01  6.1211258670838134e+01  6.0919183428111431e+01  6.0835762791377569e+01  6.0566857980776511e+01  6.0484409192377420e+01  6.0494276102666213e+01  6.0886544518072668e+01  6.1496654290594400e+01  6.1607814273431714e+01  6.0459675503115839e+01  5.8990270578601553e+01  5.7769209028292195e+01  5.7021793031442265e+01  5.6693789016202381e+01  5.5216100101947681e+01  5.3895043453540929e+01  5.2703842338930912e+01  5.2328521054085314e+01  5.1180239523632984e+01  4.9700429778092690e+01  4.9678941157701374e+01  4.9264281199981696e+01  4.8440967301108671e+01  4.6427464473379537e+01  4.4049794449403684e+01  4.2578094586395359e+01  4.1002852114582673e+01  3.9704552160444265e+01  3.8455453661937504e+01  3.7730214806542364e+01  3.7281090855057421e+01  3.6296635583516057e+01  3.5708806347482188e+01  3.5641205714466807e+01  3.5549778620755887e+01  3.5063715232697369e+01  3.4667978323581664e+01  3.4544571143380971e+01  3.7653873495862463e+01  4.3101243223202658e+01  3.7514235278843955e+01  3.5102061901274503e+01  3.3253799940244257e+01  3.3453848685944855e+01  3.3399717790713709e+01  3.3125879651085313e+01  3.2787311480636717e+01  3.2468716609200044e+01  3.2496995019818144e+01  3.2973544563369451e+01  3.3743415774448401e+01  3.4523042441376489e+01  3.5258444757712901e+01  3.6203121918262241e+01  3.6724800791714557e+01  3.7399252695032580e+01  3.8737866975739507e+01  4.0411038868026871e+01  4.1376848244142437e+01  4.1291120599986478e+01  4.1240896497035479e+01  5.2365169441845758e+01  6.0902865663085208e+01  8.5513259965943035e+01  8.7915890809233048e+01  8.8332084122642826e+01  8.5503489002173112e+01  8.8200797942090077e+01  4.9545709323107744e+01  8.5294599250596193e+01  8.6821371016486552e+01  7.3693370770861591e+01  7.2923420866677631e+01  6.0625332512323276e+01  6.0501446174505951e+01  8.7165032816275357e+01  5.2365218401099725e+01  5.2263990455542562e+01  8.5227847894360622e+01  8.5774225220497271e+01  4.9543702717447616e+01  8.4417785591607398e+01  8.6821449687078712e+01  8.5942398662760127e+01  8.5075592408490394e+01  8.6760233188812649e+01  8.5152580950657978e+01  8.6759528414212554e+01  4.8875615472532509e+01  6.6630831001036086e+01  7.5997895957528996e+01  5.0658438460071025e+01  3.5647701829711259e+01  5.1723559657735649e+01  7.5493381601642440e+01  6.0650929267700270e+01  6.4696905927351906e+01  4.2200125337375496e+01  4.1683425359758452e+01  7.5184134093000296e+01  4.7037158498224912e+01  8.2441041623071769e+01  6.7454723786988623e+01  5.2640479978466068e+01  5.6874926776356084e+01  6.8353570877759154e+01  3.3932966850223977e+01  7.8460397692025722e+01  6.1655001953195885e+01  7.0035683638761384e+01  5.2115574133620015e+01  3.6250633408998077e+01  4.5852451767076950e+01  4.4547211864268078e+01  5.7341014742876531e+01  4.2899540837117016e+01  8.1655061472063551e+01  3.6780596631349972e+01  7.6259547732594783e+01  6.3570285945097623e+01  7.0435325586640303e+01  5.0975806820889566e+01  7.2767089335832935e+01  5.9557928686205983e+01  6.7547997769682638e+01  6.5134548219895763e+01  5.5987565233051768e+01  3.7976940840792750e+01  5.9627652155044871e+01  7.9964129628757931e+01  7.4854174532495350e+01  8.5913351711650236e+01  7.0882046131944435e+01  6.9753501608557272e+01  5.6351155468891442e+01  3.9439740135824493e+01  4.2148766908506886e+01  5.9300753857042828e+01  7.9542846142221876e+01  6.1450078055271561e+01  3.5343436979027700e+01  3.8805109253945034e+01  8.1591757399047609e+01  4.5091488638998094e+01  3.2633483031016922e+01  6.8206136353416255e+01  7.6311044279998072e+01  6.5641372387302397e+01  4.6269875042143880e+01  8.5450129991951755e+01  3.7753782832936999e+01  5.1295679550147803e+01  5.9962947988930459e+01  6.5258242189211614e+01  5.6571528534517576e+01  4.7141573498334154e+01  4.4163926636276180e+01  5.5205594165387055e+01  4.7685870510008741e+01  4.7826241739909214e+01  4.5004551475952638e+01  4.9105219914914869e+01  8.4953200687824747e+01  7.8964064391262056e+01  5.3198399426124880e+01  8.3541152094963550e+01  7.6164776318310174e+01  7.3130440411573900e+01  8.0991760266518256e+01  6.2948406637534127e+01  5.9393313865258257e+01  6.5607770276671602e+01  7.2588137228656578e+01  5.7922184766253167e+01  7.8455386991472210e+01  4.8899025556295086e+01  6.5812334009292783e+01  3.2880050204546031e+01  4.8501457897801394e+01  6.9039132022144514e+01  7.7984937007688913e+01  6.2514953880361318e+01  7.1271472167310208e+01  6.1429494358596671e+01  7.2183826944707462e+01  3.5477994220897280e+01  5.1847642551305313e+01  5.3656482986505466e+01  8.0202390930245286e+01  6.6970028204650703e+01  3.7458146523537344e+01  7.9751117306259928e+01  6.3643219563691474e+01  8.4592923556843743e+01  3.3690653614050163e+01  8.5200919132671615e+01  8.5124480623967187e+01  5.5592130715245418e+01  5.1284137811710828e+01  8.5194328155988231e+01  8.6170363615960923e+01  8.3336970454181028e+01  8.5428793363765649e+01  7.1867283464953687e+01  3.6351492061899272e+01  8.1142616905887280e+01  7.6297196906483109e+01  5.6488375097686834e+01  5.0863993422240611e+01  4.7703885948209702e+01  8.5926008180220194e+01  8.5115946139526002e+01  5.8856832086887209e+01  8.6214206094616983e+01  8.4118525786839527e+01  8.4619989393317169e+01  8.6308611596773716e+01  5.9903343567884576e+01  4.9418242338885136e+01  7.1645132438907723e+01  3.4524537054357531e+01  4.9465013265406839e+01  3.6687043086003186e+01  6.9634348815855134e+01  8.7697574659963195e+01  6.7083231963865344e+01  7.3096566192367163e+01  8.3795753121713616e+01  5.9865416510300406e+01  3.3022274227353648e+01  7.2402374305351273e+01  3.9377623436740159e+01  5.2773456730267924e+01  8.5208942443163039e+01  8.3248423063917386e+01  6.2476180118650781e+01  8.7700540736767579e+01  4.3544375479860136e+01  8.5740614735205625e+01  6.4332275099521937e+01  3.2809839550389832e+01  3.6549441446618886e+01  3.7408531511502019e+01  7.2835129861587106e+01  8.2232803307261051e+01  8.1585143860530877e+01  6.9084865125070948e+01  8.5653672780823101e+01  6.0530846521776908e+01  4.9450548785423130e+01  4.9436040270186474e+01  3.3709821194419099e+01  8.5190838876642374e+01  8.5373636427163987e+01  8.5445897955099539e+01  7.6027146995104559e+01  8.1978613108950341e+01  8.5483621991216182e+01  8.3921793252895739e+01  6.7360600374256066e+01  8.8284559944289612e+01  8.8234938390838849e+01  6.1483779379674750e+01  3.5288485127992665e+01  6.1443657847218155e+01  8.2453050552123671e+01  5.6381993705415148e+01  6.5023120061203713e+01  8.7880732541541676e+01  6.1759144815600685e+01  7.3766488958938439e+01  4.1178936469993531e+01  5.6748555449957244e+01  5.5980789910695080e+01  5.7374002794733627e+01  8.6199386349611430e+01  5.0707219593230583e+01  5.1562047586665976e+01  4.9758851042140293e+01  5.1430685369900658e+01  4.7770848890311235e+01  3.3074835814144656e+01  3.1790226841992219e+01  5.2652978517231674e+01  5.5362785442497504e+01  7.5559072017754772e+01  7.5490381509342370e+01  8.8098474893300974e+01  6.7239428581282070e+01  6.4788083798265831e+01  6.0768947203180744e+01  6.0451828570449763e+01  6.0431725593358138e+01  6.0450341043919728e+01  6.0269019933285200e+01  6.0126949746045696e+01  6.2226556944215830e+01  6.0232815321811046e+01  6.0847404706520436e+01  6.4214177382220171e+01  6.2346326795359161e+01  5.8951522923917125e+01  6.0443465013033673e+01  4.5127984046957046e+01  4.6725138338858656e+01  4.4787888200874526e+01  4.3301600892838287e+01  4.3653163671607800e+01  4.1834567050000409e+01  4.2896056155080764e+01  4.2224278050815592e+01  3.9088351494324222e+01  3.7924472532022229e+01  3.4369676821971865e+01  3.4883457712348218e+01  3.4812703811544054e+01  3.5708674060851926e+01  3.5204349153934402e+01  3.6464670022012612e+01  3.6439632814517019e+01  3.5671722440993165e+01  3.7069395620258462e+01  3.6653006122562488e+01  3.7496534332808828e+01  3.6942242894895095e+01  3.8231959530993166e+01  4.0372914767508419e+01  3.9085910672484545e+01  4.5408472574427421e+01  4.6597812880315857e+01  4.6457184354151096e+01  4.9202747403231285e+01  6.7172371069185346e+01  6.6937154880361675e+01  6.6248245165710927e+01  6.7604615266426450e+01  7.3949735843791387e+01  7.7570735998076998e+01  7.4699867124734951e+01  7.7055694924329558e+01  5.3511891406608221e+01  4.9633706554617348e+01  4.9028947151909136e+01  5.0403818851671303e+01  3.6373501615909689e+01  3.8163148873054766e+01  3.6491382996603654e+01  3.6981502578568843e+01  3.6239803724376181e+01  3.5518989535942055e+01  5.4507400066633942e+01  5.5565807823320178e+01  4.8756829346218332e+01  5.2604203890600409e+01  5.0186636766409222e+01  7.5920265938225910e+01  7.3050466697653206e+01  5.9646870529369458e+01  5.9771885668313423e+01  6.2111372581995234e+01  5.9535607794685802e+01  6.1552124941261418e+01  5.9922718771108251e+01  6.3504638678409627e+01  6.6238004118274290e+01  6.5378243037605358e+01  3.7897988280531052e+01  4.0036613583526844e+01  4.2185247103400442e+01  4.0552478221222628e+01  4.2237890287471480e+01  4.2450199101655699e+01  4.6854108506400699e+01  3.8710629980917560e+01  3.9552597345944250e+01  4.4649865748035651e+01  4.4557801201633410e+01  7.2194621217618320e+01  7.7272418871852409e+01  7.3505027574731685e+01  7.8288995771780407e+01  8.1355863128852718e+01  7.0631186260318387e+01  6.4791237788108432e+01  6.9324361824835663e+01  6.6878020230630355e+01  4.8759494311434295e+01  5.3660084952122880e+01  5.5416449158032293e+01  4.9670048233375439e+01  7.1868396503067572e+01  6.8632039399675620e+01  6.9268042523945851e+01  6.6031226494057861e+01  3.5292207163200779e+01  3.4480756959846389e+01  6.1353329179604870e+01  6.0108450789422157e+01  5.8794797770094924e+01  7.0978580999395376e+01  6.8476465372393108e+01  7.1924774952583576e+01  6.8675365525547903e+01  5.4162861886835053e+01  5.0282058714868420e+01  5.0091528993091920e+01  5.1685384301254246e+01  5.1103694573785418e+01  5.2899333580912149e+01  3.6971251039828786e+01  3.6306536942495974e+01  3.6878661372191708e+01  3.6179207560598570e+01  3.6602697525030031e+01  3.6582038101934145e+01  4.5394255305892734e+01  4.5206472556251185e+01  4.7187927376138148e+01  4.5028141150236294e+01  3.9865078747402926e+01  4.5833338249140297e+01  4.6028095334138200e+01  4.6943265456395466e+01  4.1084543576565004e+01  4.3858791198552105e+01  5.6718083955541381e+01  5.9132098096045631e+01  5.6605147463821893e+01  5.4958557709105968e+01  4.0750672515585649e+01  4.4504345493749739e+01  3.9590576662587459e+01  4.5028732729602254e+01  3.7519817429002700e+01  3.5101697556562996e+01  3.7313884710768555e+01  3.6126694559984990e+01  3.6562401785582963e+01  3.5749665925903670e+01  3.7131871101110583e+01  6.2168644855446516e+01  6.2335706284781054e+01  6.5012209101703164e+01  6.5736644691459190e+01  7.0781699668543041e+01  4.9090914625749853e+01  4.9433641073519645e+01  7.0842646682294074e+01  6.2241226188015936e+01  5.8923282457152197e+01  5.7925014483460593e+01  6.1709125164606206e+01  6.8616486603601274e+01  6.6666852050307469e+01  6.3905782658565563e+01  6.3518293812954603e+01  5.7585601093427400e+01  5.2730068814218356e+01  3.8068770774409593e+01  3.8420111508826061e+01  3.7678335397966535e+01  5.9299608781491415e+01  6.0232035524930623e+01  7.6061970043912439e+01  7.9016383345412905e+01  7.2824681482658150e+01  7.7003968026102939e+01  7.3394787459926860e+01  7.3082239681002321e+01  6.7079037410869432e+01  6.7161178026827784e+01  5.3711686244884007e+01  3.8251863700974702e+01  5.6607034416167430e+01  5.9294983429030417e+01  3.5345586041367199e+01  3.6135391336948608e+01  3.5364471187881968e+01  4.2564944842456462e+01  4.5030367971513797e+01  5.0267354588044789e+01  4.7076152379563133e+01  4.6500138096248591e+01  5.0786776078598933e+01  5.9640017919619936e+01  5.9808596072342546e+01  6.0716357500219736e+01  6.0542169194062787e+01  6.4185964120517042e+01  6.4084550638031573e+01  5.4321058855210197e+01  5.0490930040144718e+01  4.7980762586064976e+01  5.0912899415022743e+01  4.8335822065607388e+01  4.5529197497480304e+01  4.7171896192991078e+01  5.5481711680302880e+01  5.1800434093217866e+01  7.5667591013401704e+01  5.3343704673602048e+01  4.9752168821470526e+01  6.0896422083157738e+01  6.4066635305928685e+01  6.9150443601583362e+01  6.6996737992085457e+01  3.7065939840876283e+01  3.4433004889378950e+01  3.6982880443871522e+01  5.9862848296645637e+01  3.6053650779655648e+01  6.0432847573298844e+01  4.1482159679032989e+01  3.8186699034155680e+01  6.1549017381569946e+01  4.6939937874664409e+01  6.7345994488303589e+01  3.5964783836050088e+01  3.6452979735137667e+01  3.5815846906256176e+01  3.5843621707597556e+01  3.5848368650608769e+01  6.0623424525012901e+01  4.1611221814704841e+01  4.4238345134489151e+01  4.2928021237014384e+01  7.5201564548208140e+01  5.7292750618352031e+01  5.0624910976799562e+01  5.0916727513341847e+01  5.2542391894728944e+01  3.5072326426448249e+01  6.8292626028368502e+01  6.8963237635475920e+01  3.6484874556664039e+01  3.6333642183127530e+01  4.5103473246836316e+01  4.5010426366408815e+01  4.2050849303644227e+01  5.5776804360712340e+01  5.9173735256641351e+01  6.0757235115547907e+01  5.8281653765926528e+01  6.1759031698579783e+01  3.8582988739749453e+01  3.7702757780799523e+01  3.8126577068759183e+01  3.7860001279434002e+01  6.8888611124955844e+01  3.7898258278911669e+01  3.9752145382823002e+01  4.0679940105163254e+01  4.7335323307920241e+01  4.7278860073200377e+01  4.7963541100711844e+01  4.6295096094670214e+01  3.8652961807421157e+01  3.7316503227386747e+01  3.7987563216994118e+01  4.8222306315047426e+01  7.2441564784093131e+01  7.3098225305486153e+01  7.4281920941735450e+01  6.2458337632789316e+01  6.5982344026942940e+01  5.0920222975899470e+01  4.8645599815883699e+01  4.8098682383374985e+01  4.9123546163971774e+01  6.3048117083998839e+01  6.0307263880389797e+01  6.0968780408567270e+01  3.5762911440420346e+01  3.5552899278996449e+01  3.5673941586357543e+01  5.1626533191245322e+01  5.3296336800528664e+01  5.2259855753038366e+01  5.0567613779678943e+01  6.5463441776283190e+01  3.6224993385098401e+01  3.6387472401000146e+01  3.6379821489020614e+01  6.0203553485036899e+01  6.0029482058129368e+01  6.0046564836507372e+01  4.2414792892720072e+01  4.3648321655047639e+01  4.4468062876993081e+01  3.7378907366368921e+01  3.5475024335606371e+01  3.5748042045394129e+01  6.1182375113327950e+01  6.2802713584730341e+01  6.1863430124811060e+01  6.1066019764799044e+01  6.1024887020292489e+01  6.1591973943612665e+01  6.0589952543803285e+01  4.5029376176278447e+01  3.5861158187093274e+01  4.5192473216705523e+01  6.7769964203076313e+01  4.9696076124892087e+01  4.9242636799194386e+01  3.5819554774210872e+01  3.6830561712489065e+01  3.7176067855034923e+01  3.8605253386905531e+01  3.7474415049212737e+01  3.6701160020101177e+01  4.9236047857602621e+01  4.7627325600075814e+01  4.8573236213865840e+01  6.0492756842997160e+01  6.0342606234820877e+01  3.7096008853542564e+01  3.8233505296763035e+01  3.9802152527754757e+01  4.0637557806723855e+01  4.5734437010301498e+01  3.8837070895998814e+01  3.9584941147280588e+01  3.8543430862820017e+01  4.7247519751253961e+01  7.4553515407495539e+01  4.9338092038900172e+01  5.1889094207821032e+01  5.1479560907590077e+01  6.6870458602495944e+01  6.7630097241136397e+01  6.6155910958946848e+01  5.0795640559591980e+01  5.2875517475024004e+01  5.0575709628196975e+01  4.4640916664331336e+01  5.4078812838075258e+01  5.4437392242613406e+01  3.7771738822164387e+01  3.7539648278760325e+01  6.3441901110747182e+01  6.2993697603105318e+01  6.4386217249520811e+01  3.8009103257474422e+01  3.6101894743761640e+01  </DataArray> 
</PointData> 
</Piece>
</UnstructuredGrid>
</VTKFile>