<?xml version="1.0"?>
<VTKFile type="UnstructuredGrid"  version="0.1"  >
<UnstructuredGrid>
<Piece  NumberOfPoints="784" NumberOfCells="1320">
<Points>
<DataArray  type="Float64"  NumberOfComponents="3"  format="ascii">266913.131276 586512.314988 0  266738.13716 587762.325998 0  266363.132677 589012.328643 0  266175.641078 590169.601714 0  265666.575631 591040.7699119999 0  264875.64001 591687.766419 0  264900.636161 591845.049083 0  266088.14152 592012.3229499999 0  265561.959259 592661.17101 0  264288.136855 593037.368683 0  263865.194033 593999.8486949999 0  263850.641856 593236.729596 0  263625.634872 592756.525286 0  262689.574249 593299.848918 0  262475.636737 594003.0907310001 0  261934.554452 594340.929792 0  261725.631329 594932.094409 0  261729.256443 595728.498809 0  262138.136044 595012.330523 0  262288.141035 596262.333669 0  261488.994028 597511.480605 0  261234.15567 598316.338928 0  260815.635063 599014.863821 0  261400.643658 599389.7367680001 0  261322.963374 600022.185065 0  261119.455248 600931.061306 0  261607.436504 601293.0629359999 0  260807.446929 602089.899812 0  260025.642878 602988.868697 0  259613.135827 603937.3854499999 0  259050.643123 604100.987861 0  258411.880065 603988.6335979999 0  257764.357469 604449.872569 0  257971.239668 605320.429125 0  258041.396867 605740.635381 0  257188.143339 606987.394312 0  256038.141198 608112.3554550001 0  254788.141633 609087.4026939999 0  253588.140656 609812.362881 0  252338.135706 609737.4048949999 0  251088.138116 609787.404055 0  249963.12851 610287.399466 0  248613.130524 610462.365857 0  247363.132198 610687.407659 0  246113.130532 610837.411551 0  245832.347438 610918.209918 0  245016.946433 610958.5639439999 0  244313.129646 610762.372259 0  244400.622144 611378.093316 0  243939.669208 612460.8930899999 0  242960.649733 611984.892792 0  242170.381438 611919.647351 0  241888.122919 611112.375656 0  241393.380757 610467.6456149999 0  240594.157528 611306.369822 0  240525.621947 610804.648112 0  240363.123632 610512.3745050001 0  239113.123247 610262.374278 0  239813.12126 609037.412459 0  240588.122952 607812.368199 0  241013.119545 606625.9534560001 0  241454.373249 605724.888025 0  242238.120107 604687.3993 0  243088.121248 603462.362766 0  242860.319451 603007.3932640001 0  241563.116617 603812.361344 0  241778.400913 604327.642217 0  242059.837234 604824.879102 0  241475.620201 604923.2402390001 0  241462.182234 605449.881372 0  240906.219606 605674.888222 0  240241.856192 606891.125066 0  239891.734044 607841.012479 0  239048.653431 608724.889805 0  238118.054545 608974.895967 0  238888.111029 607337.406468 0  239738.119992 606212.362729 0  240288.12044 605687.4075229999 0  240380.212307 604729.521696 0  239347.309632 604603.204501 0  238888.112036 604387.408787 0  237913.11173 604687.401386 0  236784.172023 604499.882783 0  236883.408793 603717.08334 0  236154.933927 603595.565605 0  235688.103943 602912.369264 0  235763.108033 601662.366516 0  236363.110805 600412.35884 0  236738.107995 599162.356577 0  236525.607944 598482.2412899999 0  236138.109208 599362.357613 0  235725.063048 600325.4466510001 0  235091.948926 601408.5220979999 0  235188.10921 600312.366344 0  234375.602405 600833.9674270001 0  234663.109308 599912.358011 0  234138.105122 600062.365644 0  233955.307245 599029.561063 0  233338.103791 598387.401556 0  233988.09795 597862.356384 0  235138.101489 596637.3947750001 0  235563.1039 595387.392428 0  236513.103639 594212.356312 0  237163.10684 592987.3929869999 0  238313.103031 591862.3515540001 0  239513.107028 590812.3512640001 0  240638.102135 589787.387271 0  241463.109549 588587.378486 0  242294.489816 587443.735215 0  242913.101099 586512.341804 0  243544.066915 585474.859604 0  243040.448415 585184.975583 0  242438.10214 585337.38015 0  241313.102353 586562.339499 0  240538.107104 587787.382449 0  240114.641085 588588.939407 0  239388.100256 589437.382238 0  238188.104456 590512.346358 0  236938.100507 591362.349798 0  235813.10453 592537.396388 0  234864.502938 593178.7753880001 0  234463.097651 592862.357267 0  235113.0965 591662.3545979999 0  235713.101522 590412.346099 0  235777.688431 589976.7582779999 0  234943.583145 590706.265132 0  234462.482256 591490.2841159999 0  233801.497784 592112.940187 0  233388.099101 591787.394208 0  234013.093099 590437.393065 0  234776.217248 587148.7548100001 0  235163.093726 586562.3486189999 0  235313.098918 585483.229012 0  235250.59732 584662.298153 0  235588.093896 583337.379493 0  236329.432041 582199.858992 0  237188.096234 581462.3349939999 0  237463.088521 580212.335511 0  238350.592558 579057.652616 0  238591.415797 578574.847681 0  238313.094106 577612.328905 0  239229.696732 577695.769664 0  240195.161018 577513.008613 0  240614.996733 577149.8518770001 0  240663.091715 577412.332622 0  240288.092486 578662.334085 0  239942.357258 579508.095811 0  240438.100019 580212.3334220001 0  241338.095553 580387.375355 0  241238.099828 579137.369157 0  241788.097003 577887.370889 0  241983.554649 577241.9220939999 0  242054.178239 576927.8105029999 0  242588.100699 575737.366175 0  243149.324833 574898.583978 0  243695.278626 573919.517981 0  244268.494418 573724.8454239999 0  244995.134063 573930.2767810001 0  245417.314363 573391.601898 0  243450.599125 571859.479773 0  245776.797908 572599.8353060001 0  246779.639852 572973.285167 0  248034.741935 573186.082054 0  249413.10651 573162.3205520001 0  250496.922226 573271.1521899999 0  251613.105126 573237.3551319999 0  252421.824577 572846.032906 0  253256.245022 572580.4733130001 0  253739.471933 571960.9547369999 0  254174.511864 572149.8346569999 0  254484.944333 571684.194807 0  254384.108649 570891.346712 0  254344.002752 570218.26407 0  255025.609604 570829.0294979999 0  255715.005913 570489.264586 0  256218.846343 570774.828355 0  256834.349083 570508.5908 0  257390.092515 570014.308325 0  257624.431042 568493.478911 0  259355.811717 569380.021819 0  260033.372814 569617.066669 0  262679.741751 570320.699974 0  263289.115756 569524.817815 0  263463.114338 570512.301061 0  264638.198419 570687.3443539999 0  265058.220065 571334.378467 0  265447.561421 572077.90485 0  265488.125257 573137.3446020001 0  265131.937715 573963.293593 0  265432.389648 575093.068786 0  265638.122314 576338.029955 0  265750.630817 577371.8281319999 0  265738.570663 578561.9098850001 0  265875.630866 579139.630549 0  266213.129247 579862.311842 0  266563.130472 581112.314509 0  266238.135356 582362.310259 0  265938.12863 583612.320897 0  265738.131342 584762.3210189999 0  266875.638633 585365.358768 0  264018.7239399826 593650.4646671159 0  262236.3944351029 595831.1252656333 0  241846.246678 605206.1436625 0  240200.622106 608424.8903290001 0  240943.4862974102 610939.7757535663 0  236550.6094 599787.3577085 0  238528.1212051503 608102.9081793013 0  244413.4891967989 572609.5960859474 0  236382.0474488751 598808.3067022427 0  235369.601910944 600933.5380148316 0  235413.099011 591037.3503485 0  235446.2251831186 590266.6553871984 0  240475.5921005 578037.3333535 0  240413.173949154 577324.4280286073 0  240574.037899 606283.0066440001 0  263857.9179445 593618.2891454998 0  264153.4303974913 593343.916675058 0  242042.1833925 604946.7714812499 0  241650.3099635 605465.51584375 0  244613.6985165 572229.6575395 0  236631.8579695 598822.2989335 0  235140.029068 600860.444221 0  241767.7287175 604874.0596705 0  242140.15174975 604817.0853906251 0  234781.8558075 600573.1668855001 0  242091.167571125 604881.9284359375 0  234519.3558565 600373.162719 0  254604.8337712102 583989.0014118921 0  250699.5846056537 594617.3297041012 0  250540.4796469513 602258.2940568649 0  248483.7490186612 580334.7345534252 0  258549.2190328319 577893.951823392 0  257067.0067473103 590016.5327808241 0  243285.0921999099 596333.923437875 0  248333.1386145258 589098.0389905117 0  256142.8445072741 595883.3911551933 0  260245.1368072523 583315.2785712298 0  253472.3380211276 578932.2908163272 0  246432.3347504817 599884.5019511909 0  261555.9240922556 588041.186709004 0  247293.1100123104 605823.8307887657 0  246458.2798550911 593168.8646574575 0  252840.0183145193 588226.5564648228 0  249828.2874404451 584740.7888937403 0  255409.5660975206 600458.8956828594 0  260819.9733392385 574219.403683011 0  252584.2262054711 605722.6603825617 0  254049.8830611471 592547.4852571967 0  250015.4356193061 598425.2225922942 0  245872.072249477 577604.9761853142 0  262002.1583249522 579753.4663046852 0  257732.6630933878 586227.970805314 0  250242.5556457866 577017.3316409125 0  244921.6453001869 581816.6358421432 0  256520.3890639471 580904.824006648 0  240779.0970645865 599524.6679555867 0  257100.1829219198 574459.5922545703 0  239912.2630002034 595231.1172704464 0  244703.0875078634 590068.6945953515 0  242549.5490268674 592874.3693043783 0  251586.0465921376 581796.2215047925 0  246643.189997516 596527.447801719 0  251049.7658069622 591057.6752245198 0  253014.5731561695 596998.6601086652 0  238680.2197353724 584542.2309791476 0  259715.365803504 591937.1938619445 0  254097.157218761 575731.4494927844 0  246806.6408589328 586139.0877599345 0  246136.1179750556 602959.471719323 0  253520.7033332401 602835.180253843 0  244125.4295793909 607538.9817227355 0  252546.8895354472 599881.3279113505 0  258289.0983523553 600397.640191779 0  247518.7952199645 583037.3718217331 0  263140.3959879661 582529.2228421422 0  262894.8586894067 585442.3590432997 0  256968.6320599076 593040.7691844478 0  243573.0187527719 600218.2795730785 0  258888.5766127351 595139.7745218446 0  262588.7569809347 576734.8569237856 0  259318.4257992262 580601.2540325444 0  249963.3812725965 607065.7205847671 0  257494.5307999607 583482.5893534871 0  258906.4757205145 572278.8089438241 0  237751.446593475 587300.5805003279 0  255142.4708720699 604956.7580261135 0  258485.4978753244 597756.9250383095 0  255516.7820591553 587791.39641967 0  239758.4692108706 601926.8203218657 0  255873.0092222999 577739.5085867504
[...]
<PointData  Scalars="f_32-1"> 
<DataArray  type="Float64"  Name="f_32-1"  format="ascii">4.1617982244789957e+01  4.2903160291948204e+01  4.4857350272455420e+01  4.6629005920095643e+01  4.7960017008409828e+01  5.0021215596089242e+01  5.0660544822826260e+01  5.1107984107767187e+01  5.1134194893470642e+01  5.1688311209173854e+01  5.2032504838773377e+01  5.1904133819974113e+01  5.2163887099746262e+01  5.4772360644754656e+01  5.6190738715325892e+01  5.7493479041376766e+01  5.9024805693724460e+01  6.0482016487211133e+01  6.0450668110967072e+01  6.0863195901599354e+01  6.2973849631194291e+01  6.4675844191456008e+01  6.6662644773921457e+01  6.7671621400715154e+01  6.8201912152290248e+01  6.9456946976099687e+01  6.9816646759276125e+01  7.0500667061421737e+01  7.1786902390504906e+01  7.2562112209368848e+01  7.2753898505012032e+01  7.3239636446582466e+01  7.4426500868521288e+01  7.5360478991472178e+01  7.5536359753202277e+01  7.6438450428035807e+01  7.7671259610672877e+01  7.8960714256884543e+01  7.9877037691318137e+01  8.0678393720701735e+01  8.1874597254938649e+01  8.3000482649397611e+01  8.4014684305824744e+01  8.4908088731390507e+01  8.5703926139685635e+01  8.5871827677529780e+01  8.6303725642775206e+01  8.6854705137425995e+01  8.7279189539212936e+01  8.7473540878068036e+01  8.7511843007931304e+01  8.7549370352126559e+01  8.7537036510997083e+01  8.7620157188866983e+01  8.7817290282671934e+01  8.7802184143457168e+01  8.7805088138586768e+01  8.7885416053611905e+01  8.7671701172764656e+01  8.6976342626332894e+01  8.6169064847278591e+01  8.5497479609071377e+01  8.4413057507776585e+01  8.2666787814230631e+01  8.2490577701490707e+01  8.4710846091062351e+01  8.5291221753328855e+01  8.5425611071173236e+01  8.5574885974584078e+01  8.5788230625188376e+01  8.6071756145949067e+01  8.7103247221977952e+01  8.7481650801606150e+01  8.7688147389309151e+01  8.7733560107347927e+01  8.7506792289382261e+01  8.6941406024774039e+01  8.6354603809235201e+01  8.5716412488830940e+01  8.6036538984004764e+01  8.6322072529311114e+01  8.6742675148405553e+01  8.6874424960133666e+01  8.6861042684942973e+01  8.6902653887996578e+01  8.6869632729390588e+01  8.6575314759618067e+01  8.5660534437766358e+01  8.4194471220051398e+01  8.4008129930966689e+01  8.5455771969041820e+01  8.6088129577810307e+01  8.6284145443060694e+01  8.6130661237252369e+01  8.6211741420827366e+01  8.6052319542953938e+01  8.6031788668630085e+01  8.5818437537720115e+01  8.5720872613888474e+01  8.5439072753613971e+01  8.3212947042267828e+01  8.0882156140142584e+01  7.7900366017852122e+01  7.5058611425498441e+01  7.2348296692927590e+01  7.0031852593799158e+01  6.8134983868090515e+01  6.6335881403126805e+01  6.4529995010688381e+01  6.2900187504363714e+01  6.0979954280500777e+01  6.0011953569477043e+01  6.0290681364039337e+01  6.3607428926919276e+01  6.6195909377749402e+01  6.7212917928713779e+01  6.8229724486160222e+01  6.9950084010034345e+01  7.2157919774786848e+01  7.4544263741058913e+01  7.5195887984712030e+01  7.5202988634811334e+01  7.4216954548732261e+01  7.2200440642536492e+01  7.1797643890840931e+01  7.3636656560986836e+01  7.4867361545963050e+01  7.5285956477101806e+01  7.5289491808226771e+01  7.3980282327838538e+01  6.9560276047719967e+01  6.8836785183322576e+01  6.7740850989638020e+01  6.7136886655574415e+01  6.6229575450273799e+01  6.5133885566267097e+01  6.3795184240977406e+01  6.2489824624251057e+01  6.1365874893575217e+01  6.0900798771724993e+01  6.0617582216335997e+01  6.0546384676405687e+01  6.0306176108015052e+01  6.0232089576087141e+01  6.0240934282634022e+01  6.0603348504802398e+01  6.1180647602263761e+01  6.1264834629150371e+01  6.0100117139399991e+01  5.8611323679969630e+01  5.7370236838929209e+01  5.6618931572472825e+01  5.6290076145272494e+01  5.4827797132535139e+01  5.3537962966117234e+01  5.2375403525730398e+01  5.2014351000861829e+01  5.0902683692411280e+01  4.9423746768183157e+01  4.9342549815128137e+01  4.8982405736644729e+01  4.8178006588275700e+01  4.6174903977831043e+01  4.3759019347817741e+01  4.2309614393348390e+01  4.0768351968853764e+01  3.9438626691103970e+01  3.8219459451163914e+01  3.7526465832952432e+01  3.7100446986948540e+01  3.6159591136707220e+01  3.5613121802505688e+01  3.5548225656800980e+01  3.5461004135027579e+01  3.5011657587676176e+01  3.4657620651712783e+01  3.4634453633747889e+01  3.7518490031437778e+01  4.2257776519784578e+01  3.7251375297448277e+01  3.4962210870659590e+01  3.3153484518153817e+01  3.3364559298951065e+01  3.3289296225333075e+01  3.3047357896587670e+01  3.2747369111444485e+01  3.2461919322334964e+01  3.2484322022465904e+01  3.2938307703615436e+01  3.3696727421547607e+01  3.4494560082291095e+01  3.5232592299599951e+01  3.6196620837572652e+01  3.6729215624222526e+01  3.7369365432843338e+01  3.8622006847071773e+01  4.0182533457522240e+01  4.1234706568774918e+01  4.1235954424392823e+01  4.1119878484381701e+01  5.1997385629837026e+01  6.0635964761797105e+01  8.5011053675224943e+01  8.7389580633517738e+01  8.7792575139343214e+01  8.4956525216552862e+01  8.7669994175417031e+01  4.9230192291643824e+01  8.4736152163902744e+01  8.6245833867645672e+01  7.3244140275692132e+01  7.2494167865369917e+01  6.0360216086100934e+01  6.0247320283826156e+01  8.6663250119563571e+01  5.1997344897915745e+01  5.1911514681298954e+01  8.4725717087519143e+01  8.5271668778672250e+01  4.9229708415742117e+01  8.3883128834346195e+01  8.6245913710656112e+01  8.5450826501245885e+01  8.4573604474048594e+01  8.6181348382937898e+01  8.4650520248905153e+01  8.6180594648031743e+01  4.8245967505146133e+01  6.6239682433986943e+01  7.5535215289685240e+01  5.0198633690852070e+01  3.2917292319689942e+01  5.0625470106044993e+01  7.5031169344036243e+01  6.0352376861572068e+01  6.4258177998421800e+01  4.1972820841556320e+01  4.0399156429377513e+01  7.4923762064366500e+01  4.6837508629383251e+01  8.1963755392436624e+01  6.7206913845558034e+01  5.1926773460556412e+01  5.6539414633764800e+01  6.7848964671755411e+01  3.3793982262069285e+01  7.8024538279700153e+01  6.1210119619596014e+01  6.9879355495849651e+01  5.1696384598407683e+01  3.5414148183540846e+01  4.4690591563925793e+01  4.3941170700412165e+01  5.6973859290708539e+01  4.2689212566036417e+01  8.1183322519702003e+01  3.6554526837434764e+01  7.5849918037343997e+01  6.3487664050776267e+01  7.0056879321544827e+01  5.0705501974854847e+01  7.2295584194793932e+01  5.9722250272680746e+01  6.7019643142566807e+01  6.4733827984620788e+01  5.5644487876431320e+01  3.7210128672817220e+01  5.9308284425843489e+01  7.9510882884465914e+01  7.4379687087855331e+01  8.5412993922485185e+01  7.0332095847080780e+01  6.9282139885232368e+01  5.6038781604425864e+01  3.9083339702716842e+01  4.2046850429075917e+01  5.8794814965793471e+01  7.9089378848543276e+01  6.1153530005100592e+01  3.5127258165397919e+01  3.8507015161058327e+01  8.1119551195050548e+01  4.4594331806458371e+01  3.2681066897024579e+01  6.7850593618940962e+01  7.5880394626403870e+01  6.5246322358308817e+01  4.4783452978617241e+01  8.4884706718766523e+01  3.6329247714804275e+01  5.1049565405247954e+01  5.9532533484784935e+01  6.4940428470776027e+01  5.6173604061027262e+01  4.6891940033963273e+01  4.4012768900521230e+01  5.4463324408633937e+01  4.7180664306591090e+01  4.7472867133201383e+01  4.4799751404192854e+01  4.8436442022528560e+01  8.4451606285001247e+01  7.8512121694287245e+01  5.2805095754493649e+01  8.3048968496191179e+01  7.5701991663110789e+01  7.3055942777949127e+01  8.0527608647936248e+01  6.2563027293997017e+01  5.9011631478750807e+01  6.5032622198098693e+01  7.2107184859398458e+01  5.7489688779175204e+01  7.8025723400919489e+01  4.7801021298026107e+01  6.5357269798787939e+01  3.2832632127852193e+01  4.7982876477641923e+01  6.8624973792791295e+01  7.7557860018703124e+01  6.2453466053290235e+01  7.0867457793193097e+01  6.1328345516864061e+01  7.1826899694478129e+01  3.4156773779853339e+01  5.1418131773191050e+01  5.3364009005164505e+01  7.9725437890871262e+01  6.6873574541692321e+01  3.7216650897321102e+01  7.9286894476688389e+01  6.3305599574131115e+01  8.4042851186296758e+01  3.3628829450313965e+01  8.4701775403939848e+01  8.4623124945036125e+01  5.5192994106661828e+01  5.1004801281359995e+01  8.4692250561517398e+01  8.5656290010259198e+01  8.2825854741559255e+01  8.4859550773541315e+01  7.1460584179334489e+01  3.6197221910320238e+01  8.0654172365570190e+01  7.5868473765475258e+01  5.6089158741655503e+01  5.0590526240240287e+01  4.7523272871895180e+01  8.5423856894950347e+01  8.4613901439638269e+01  5.8579572126262200e+01  8.5670260258804802e+01  8.3617264324803813e+01  8.4119003075559519e+01  8.5788015691074961e+01  5.9473675306046268e+01  4.9116866897518008e+01  7.1280188965928986e+01  3.4477148886334668e+01  4.9241435665674345e+01  3.6639631600704412e+01  6.9272513097599457e+01  8.7177995188850261e+01  6.6695383422907241e+01  7.2652149247387953e+01  8.3272727051976531e+01  5.9451223539367106e+01  3.3168916335754041e+01  7.1987738060001462e+01  3.8880438303105059e+01  5.2442619327926600e+01  8.4648523249961286e+01  8.2713629671975070e+01  6.2132863202757427e+01  8.7179896773503529e+01  4.3180985515422812e+01  8.5178632477741573e+01  6.3996987439731697e+01  3.2757383869785180e+01  3.6396134538215513e+01  3.7123573813359684e+01  7.2362256101205787e+01  8.1742123273297707e+01  8.1107781912121212e+01  6.8675960447874857e+01  8.5151615686592478e+01  6.0257365660851242e+01  4.9152702842497476e+01  4.9140468485014679e+01  3.3879008277080672e+01  8.4688729833760831e+01  8.4871415799360719e+01  8.4943743060968956e+01  7.5599847007810794e+01  8.1485151025350973e+01  8.4966875707421494e+01  8.3415538947105148e+01  6.6993708672138027e+01  8.7747053975944397e+01  8.7699212834581914e+01  6.1104362840154423e+01  3.5234530214248380e+01  6.1128588564454098e+01  8.1957191762409451e+01  5.6125955431655086e+01  6.4640371740863031e+01  8.7352555583097427e+01  6.1363208915116125e+01  7.3317225993035279e+01  4.1063738858597866e+01  5.6347079442063816e+01  5.5581443197523974e+01  5.6975251080328206e+01  8.5624677840765941e+01  5.0441271592003076e+01  5.1257780820423648e+01  4.9519869512010956e+01  5.1130612057248676e+01  4.7553766020560012e+01  3.2975118518056590e+01  3.1797020676068612e+01  5.2380109787370465e+01  5.4974530844827427e+01  7.4990665246311707e+01  7.4926983702148931e+01  8.7567946659842832e+01  6.6867398885053959e+01  6.4450503401096555e+01  6.0409660079249520e+01  6.0044001605240879e+01  6.0027611710816267e+01  5.9987835712555750e+01  5.9857505442726548e+01  5.9698379945187966e+01  6.1756831123502039e+01  5.9806256744396187e+01  6.0458042230324573e+01  6.3806749221833293e+01  6.1946927987508914e+01  5.8545615081583335e+01  6.0039680788363931e+01  4.4856690032090569e+01  4.6439724629438935e+01  4.4514876848536574e+01  4.3019114210912612e+01  4.3368398570729973e+01  4.1572403024089859e+01  4.2593649545057410e+01  4.1902197845609351e+01  3.8803717575832465e+01  3.7680738229294171e+01  3.4334205554673069e+01  3.4860075623751499e+01  3.4782311505072755e+01  3.5686254788836614e+01  3.5178158478878032e+01  3.6464958894061922e+01  3.6430993927231363e+01  3.5650861034829425e+01  3.7063639809409118e+01  3.6645959418646505e+01  3.7447360255736768e+01  3.6933859202247298e+01  3.8107576201953727e+01  4.0116180153692724e+01  3.8882270847110796e+01  4.3986122905772099e+01  4.6267326079507164e+01  4.5704275455873137e+01  4.8292544772248441e+01  6.7230691859683560e+01  6.6581925748474944e+01  6.5852846629900412e+01  6.7233089962794864e+01  7.3428791219094350e+01  7.7109716024323035e+01  7.4365321591618027e+01  7.6632865709563319e+01  5.3099561593257881e+01  4.9220412161762368e+01  4.8603833033037859e+01  4.9933952196234024e+01  3.5151383586705585e+01  3.7136864794594118e+01  3.5317307162438333e+01  3.5900297788675829e+01  3.3890629965173744e+01  3.2949966163499610e+01  5.3888798629154500e+01  5.4787676583802984e+01  4.7457986647976917e+01  5.1620782167324300e+01  4.9220614005662078e+01  7.5469955359124228e+01  7.2609612185777692e+01  5.9696203297227932e+01  5.9549140171503964e+01  6.1964322867255497e+01  5.9163882157722547e+01  6.1309268680814213e+01  5.9977925197215235e+01  6.3082866050561776e+01  6.5696803851124358e+01  6.4922597180472934e+01  3.7195634673704291e+01  3.9697570044167307e+01  4.2047256726480342e+01  4.0276425802608550e+01  4.0963582740570523e+01  4.2114960566743747e+01  4.6347774663171442e+01  3.7151778630402781e+01  3.8500343112585000e+01  4.4147617611041561e+01  4.3647961849744831e+01  7.2014479152612736e+01  7.6976122334027323e+01  7.3504448187272274e+01  7.7881879248828625e+01  8.0874033077889138e+01  7.0194258811621850e+01  6.4716628952027278e+01  6.9013324418452910e+01  6.6798416228411682e+01  4.7737428694850330e+01  5.2935111064259438e+01  5.4883765263298400e+01  4.8719750988304526e+01  7.1358294710942303e+01  6.8129681638139786e+01  6.8738842343181517e+01  6.5530099491078673e+01  3.5095716318581658e+01  3.4249315455094113e+01  6.1047304630711857e+01  5.9579860692253206e+01  5.8232135826870440e+01  7.0687991080108148e+01  6.8244217693097184e+01  7.1668313508922040e+01  6.8614696963185764e+01  5.3757828096990913e+01  4.9869823816303260e+01  4.9642638680963749e+01  5.1292399791181218e+01  5.0734955480362089e+01  5.2532776413085394e+01  3.6234116011615839e+01  3.5832519284699544e+01  3.6061816937265135e+01  3.5186736931586516e+01  3.6056573637336072e+01  3.6212738573147497e+01  4.4522129222068394e+01  4.3454199738482195e+01  4.6222718285695336e+01  4.3334796590294793e+01  3.8593578462554376e+01  4.5179043581120609e+01  4.5615337706290489e+01  4.6402234141245309e+01  4.0265843087299160e+01  4.3374850333829301e+01  5.6436677995791271e+01  5.8706255999622719e+01  5.6238281239519345e+01  5.4567618076366941e+01  4.0549807685858688e+01  4.4252521776425155e+01  3.8766178750445555e+01  4.4848829340172564e+01  3.7119505799418832e+01  3.5014486768713475e+01  3.6493624740079518e+01  3.5427572150002582e+01  3.6396347606403033e+01  3.5631218007610798e+01  3.6890374596029261e+01  6.2330576738180746e+01  6.2263824307269502e+01  6.5011228794799791e+01  6.5434507180031190e+01  7.0401190142429471e+01  4.8811313172156424e+01  4.9070870303403069e+01  7.0402644414285874e+01  6.2272730037084223e+01  5.8561694757920101e+01  5.7753437765371416e+01  6.1595114093250672e+01  6.8079546499234851e+01  6.6080839725805276e+01  6.3507547389188794e+01  6.3114124307158086e+01  5.7133397672118633e+01  5.2276513767696869e+01  3.7050573123607869e+01  3.7738080700901115e+01  3.7247328047071953e+01  5.8933843464193501e+01  6.0074363332769238e+01  7.5910259583036520e+01  7.8600852971661695e+01  7.2305195443414007e+01  7.6555149878568798e+01  7.2906456765484450e+01  7.2609566824701773e+01  6.6551454375453261e+01  6.6616108438141040e+01  5.3445700129947660e+01  3.7818254293167428e+01  5.5910366881252635e+01  5.8945857644694435e+01  3.4741879062727818e+01  3.5981154092814570e+01  3.5251808561067051e+01  4.2417986714700753e+01  4.4670553309496512e+01  4.9254762043474329e+01  4.5594789986188985e+01  4.5085704335651201e+01  5.0482415235900149e+01  5.9202382233765398e+01  5.9387485325949214e+01  6.0302914249845877e+01  6.0138105932499094e+01  6.3913787166860871e+01  6.3857026381654890e+01  5.3949276269754563e+01  5.0211263340991252e+01  4.7454460863110242e+01  5.0585726157337874e+01  4.7873323013965731e+01  4.5193371330349251e+01  4.6772370303671799e+01  5.5014216038165920e+01  5.1151206291525554e+01  7.5442724635990530e+01  5.2678241589451396e+01  4.9390689707167603e+01  6.0983525950115833e+01  6.4250174758918433e+01  6.8873027848273424e+01  6.6730769708939249e+01  3.6932291635080780e+01  3.4370858310343245e+01  3.6773475780238861e+01  5.9430474683682874e+01  3.5989712770267928e+01  6.0043126183409726e+01  4.1001376395189936e+01  3.7804747446757290e+01  6.1143039716541082e+01  4.5704545606902911e+01  6.7186049853460290e+01  3.3976776681846850e+01  3.4498234432167862e+01  3.3447196600750573e+01  3.3184091933160147e+01  3.3781002010254646e+01  6.0519622323190234e+01  4.0143848696320255e+01  4.3421373953487404e+01  4.1786975095584431e+01  7.5101836091748140e+01  5.7026632508334693e+01  4.9766033939832184e+01  5.0086993599934658e+01  5.1835323313679183e+01  3.4715572453937689e+01  6.8351397503060468e+01  6.8963323576979491e+01  3.5542263649941681e+01  3.5484074146451093e+01  4.3668008496910716e+01  4.3373014764732325e+01  4.1113445570984901e+01  5.5491568779139619e+01  5.9414125232836582e+01  6.0925014797402071e+01  5.8388653442984527e+01  6.1782185483028655e+01  3.7382781320380083e+01  3.7190525108973617e+01  3.7374708507057115e+01  3.7269513221612343e+01  6.8349580658949506e+01  3.7375145832246368e+01  3.9550599679395255e+01  4.0534587635439522e+01  4.5940137889003054e+01  4.6042387821221539e+01  4.6742847513214244e+01  4.4693626281187726e+01  3.7530431504235040e+01  3.6036437897507547e+01  3.6810359589702891e+01  4.7137486321465879e+01  7.2363420832839694e+01  7.3116705271190611e+01  7.4266237844776654e+01  6.2056562942345742e+01  6.5443298852309681e+01  5.0063451400831106e+01  4.8169241741083567e+01  4.7565914894315007e+01  4.8696177986258533e+01  6.3170000082596559e+01  6.0386347833643349e+01  6.1040158688025279e+01  3.3919251152438967e+01  3.3587535656766903e+01  3.4484769418439328e+01  5.1235222451870492e+01  5.2906738204943849e+01  5.1985871811686422e+01  5.0153748726196973e+01  6.5544071525305725e+01  3.6202245551497107e+01  3.6282020581417925e+01  3.6335697777231054e+01  5.9805536899168551e+01  5.9626038533748854e+01  5.9647538029344098e+01  4.1895316895688474e+01  4.3230779322875044e+01  4.4125450309980152e+01  3.7062283614556392e+01  3.5441043409961821e+01  3.5662868710211185e+01  6.0795558707163991e+01  6.2404071314195996e+01  6.1472719582030329e+01  6.0669440478144260e+01  6.0634722031809069e+01  6.1189222433148231e+01  6.0203246889934924e+01  4.4727693187580932e+01  3.5828816653293167e+01  4.3583501370552895e+01  6.7812737870207215e+01  4.9292242727804272e+01  4.8876364557063553e+01  3.3749304208388359e+01  3.4919809519297942e+01  3.6446635165244281e+01  3.8122827222800154e+01  3.5839455640612442e+01  3.5093798049514533e+01  4.7977535841943499e+01  4.6183460385332452e+01  4.7343856951510553e+01  6.0676683698850525e+01  6.0435588647988517e+01  3.6272586619360546e+01  3.7643770269950465e+01  3.8043399275328369e+01  3.9219389976978611e+01  4.5045518316202674e+01  3.7195585929472685e+01  3.8705055735938338e+01  3.7386628739304214e+01  4.6705866989911833e+01  7.4546209338326278e+01  4.8322814815429844e+01  5.1023321230954558e+01  5.0685624741515682e+01  6.6386925244978073e+01  6.7122612163047108e+01  6.5652349953386732e+01  5.0380544116763311e+01  5.2497325957407675e+01  5.0186830792298956e+01  4.4258206305182341e+01  5.3836516624454219e+01  5.4056729695676253e+01  3.7078515064392199e+01  3.7150941069075344e+01  6.3579580223730943e+01  6.3205902988265144e+01  6.4528570532775532e+01  3.7440424175045109e+01  3.5995322525755512e+01  </DataArray> 
</PointData> 
</Piece>
</UnstructuredGrid>
</VTKFile>