<?xml version="1.0"?>
<VTKFile type="UnstructuredGrid"  version="0.1"  >
<UnstructuredGrid>
<Piece  NumberOfPoints="784" NumberOfCells="1320">
<Points>
<DataArray  type="Float64"  NumberOfComponents="3"  format="ascii">266913.131276 586512.314988 0  266738.13716 587762.325998 0  266363.132677 589012.328643 0  266175.641078 590169.601714 0  265666.575631 591040.7699119999 0  264875.64001 591687.766419 0  264900.636161 591845.049083 0  266088.14152 592012.3229499999 0  265561.959259 592661.17101 0  264288.136855 593037.368683 0  263865.194033 593999.8486949999 0  263850.641856 593236.729596 0  263625.634872 592756.525286 0  262689.574249 593299.848918 0  262475.636737 594003.0907310001 0  261934.554452 594340.929792 0  261725.631329 594932.094409 0  261729.256443 595728.498809 0  262138.136044 595012.330523 0  262288.141035 596262.333669 0  261488.994028 597511.480605 0  261234.15567 598316.338928 0  260815.635063 599014.863821 0  261400.643658 599389.7367680001 0  261322.963374 600022.185065 0  261119.455248 600931.061306 0  261607.436504 601293.0629359999 0  260807.446929 602089.899812 0  260025.642878 602988.868697 0  259613.135827 603937.3854499999 0  259050.643123 604100.987861 0  258411.880065 603988.6335979999 0  257764.357469 604449.872569 0  257971.239668 605320.429125 0  258041.396867 605740.635381 0  257188.143339 606987.394312 0  256038.141198 608112.3554550001 0  254788.141633 609087.4026939999 0  253588.140656 609812.362881 0  252338.135706 609737.4048949999 0  251088.138116 609787.404055 0  249963.12851 610287.399466 0  248613.130524 610462.365857 0  247363.132198 610687.407659 0  246113.130532 610837.411551 0  245832.347438 610918.209918 0  245016.946433 610958.5639439999 0  244313.129646 610762.372259 0  244400.622144 611378.093316 0  243939.669208 612460.8930899999 0  242960.649733 611984.892792 0  242170.381438 611919.647351 0  241888.122919 611112.375656 0  241393.380757 610467.6456149999 0  240594.157528 611306.369822 0  240525.621947 610804.648112 0  240363.123632 610512.3745050001 0  239113.123247 610262.374278 0  239813.12126 609037.412459 0  240588.122952 607812.368199 0  241013.119545 606625.9534560001 0  241454.373249 605724.888025 0  242238.120107 604687.3993 0  243088.121248 603462.362766 0  242860.319451 603007.3932640001 0  241563.116617 603812.361344 0  241778.400913 604327.642217 0  242059.837234 604824.879102 0  241475.620201 604923.2402390001 0  241462.182234 605449.881372 0  240906.219606 605674.888222 0  240241.856192 606891.125066 0  239891.734044 607841.012479 0  239048.653431 608724.889805 0  238118.054545 608974.895967 0  238888.111029 607337.406468 0  239738.119992 606212.362729 0  240288.12044 605687.4075229999 0  240380.212307 604729.521696 0  239347.309632 604603.204501 0  238888.112036 604387.408787 0  237913.11173 604687.401386 0  236784.172023 604499.882783 0  236883.408793 603717.08334 0  236154.933927 603595.565605 0  235688.103943 602912.369264 0  235763.108033 601662.366516 0  236363.110805 600412.35884 0  236738.107995 599162.356577 0  236525.607944 598482.2412899999 0  236138.109208 599362.357613 0  235725.063048 600325.4466510001 0  235091.948926 601408.5220979999 0  235188.10921 600312.366344 0  234375.602405 600833.9674270001 0  234663.109308 599912.358011 0  234138.105122 600062.365644 0  233955.307245 599029.561063 0  233338.103791 598387.401556 0  233988.09795 597862.356384 0  235138.101489 596637.3947750001 0  235563.1039 595387.392428 0  236513.103639 594212.356312 0  237163.10684 592987.3929869999 0  238313.103031 591862.3515540001 0  239513.107028 590812.3512640001 0  240638.102135 589787.387271 0  241463.109549 588587.378486 0  242294.489816 587443.735215 0  242913.101099 586512.341804 0  243544.066915 585474.859604 0  243040.448415 585184.975583 0  242438.10214 585337.38015 0  241313.102353 586562.339499 0  240538.107104 587787.382449 0  240114.641085 588588.939407 0  239388.100256 589437.382238 0  238188.104456 590512.346358 0  236938.100507 591362.349798 0  235813.10453 592537.396388 0  234864.502938 593178.7753880001 0  234463.097651 592862.357267 0  235113.0965 591662.3545979999 0  235713.101522 590412.346099 0  235777.688431 589976.7582779999 0  234943.583145 590706.265132 0  234462.482256 591490.2841159999 0  233801.497784 592112.940187 0  233388.099101 591787.394208 0  234013.093099 590437.393065 0  234776.217248 587148.7548100001 0  235163.093726 586562.3486189999 0  235313.098918 585483.229012 0  235250.59732 584662.298153 0  235588.093896 583337.379493 0  236329.432041 582199.858992 0  237188.096234 581462.3349939999 0  237463.088521 580212.335511 0  238350.592558 579057.652616 0  238591.415797 578574.847681 0  238313.094106 577612.328905 0  239229.696732 577695.769664 0  240195.161018 577513.008613 0  240614.996733 577149.8518770001 0  240663.091715 577412.332622 0  240288.092486 578662.334085 0  239942.357258 579508.095811 0  240438.100019 580212.3334220001 0  241338.095553 580387.375355 0  241238.099828 579137.369157 0  241788.097003 577887.370889 0  241983.554649 577241.9220939999 0  242054.178239 576927.8105029999 0  242588.100699 575737.366175 0  243149.324833 574898.583978 0  243695.278626 573919.517981 0  244268.494418 573724.8454239999 0  244995.134063 573930.2767810001 0  245417.314363 573391.601898 0  243450.599125 571859.479773 0  245776.797908 572599.8353060001 0  246779.639852 572973.285167 0  248034.741935 573186.082054 0  249413.10651 573162.3205520001 0  250496.922226 573271.1521899999 0  251613.105126 573237.3551319999 0  252421.824577 572846.032906 0  253256.245022 572580.4733130001 0  253739.471933 571960.9547369999 0  254174.511864 572149.8346569999 0  254484.944333 571684.194807 0  254384.108649 570891.346712 0  254344.002752 570218.26407 0  255025.609604 570829.0294979999 0  255715.005913 570489.264586 0  256218.846343 570774.828355 0  256834.349083 570508.5908 0  257390.092515 570014.308325 0  257624.431042 568493.478911 0  259355.811717 569380.021819 0  260033.372814 569617.066669 0  262679.741751 570320.699974 0  263289.115756 569524.817815 0  263463.114338 570512.301061 0  264638.198419 570687.3443539999 0  265058.220065 571334.378467 0  265447.561421 572077.90485 0  265488.125257 573137.3446020001 0  265131.937715 573963.293593 0  265432.389648 575093.068786 0  265638.122314 576338.029955 0  265750.630817 577371.8281319999 0  265738.570663 578561.9098850001 0  265875.630866 579139.630549 0  266213.129247 579862.311842 0  266563.130472 581112.314509 0  266238.135356 582362.310259 0  265938.12863 583612.320897 0  265738.131342 584762.3210189999 0  266875.638633 585365.358768 0  264018.7239399826 593650.4646671159 0  262236.3944351029 595831.1252656333 0  241846.246678 605206.1436625 0  240200.622106 608424.8903290001 0  240943.4862974102 610939.7757535663 0  236550.6094 599787.3577085 0  238528.1212051503 608102.9081793013 0  244413.4891967989 572609.5960859474 0  236382.0474488751 598808.3067022427 0  235369.601910944 600933.5380148316 0  235413.099011 591037.3503485 0  235446.2251831186 590266.6553871984 0  240475.5921005 578037.3333535 0  240413.173949154 577324.4280286073 0  240574.037899 606283.0066440001 0  263857.9179445 593618.2891454998 0  264153.4303974913 593343.916675058 0  242042.1833925 604946.7714812499 0  241650.3099635 605465.51584375 0  244613.6985165 572229.6575395 0  236631.8579695 598822.2989335 0  235140.029068 600860.444221 0  241767.7287175 604874.0596705 0  242140.15174975 604817.0853906251 0  234781.8558075 600573.1668855001 0  242091.167571125 604881.9284359375 0  234519.3558565 600373.162719 0  254604.8337712102 583989.0014118921 0  250699.5846056537 594617.3297041012 0  250540.4796469513 602258.2940568649 0  248483.7490186612 580334.7345534252 0  258549.2190328319 577893.951823392 0  257067.0067473103 590016.5327808241 0  243285.0921999099 596333.923437875 0  248333.1386145258 589098.0389905117 0  256142.8445072741 595883.3911551933 0  260245.1368072523 583315.2785712298 0  253472.3380211276 578932.2908163272 0  246432.3347504817 599884.5019511909 0  261555.9240922556 588041.186709004 0  247293.1100123104 605823.8307887657 0  246458.2798550911 593168.8646574575 0  252840.0183145193 588226.5564648228 0  249828.2874404451 584740.7888937403 0  255409.5660975206 600458.8956828594 0  260819.9733392385 574219.403683011 0  252584.2262054711 605722.6603825617 0  254049.8830611471 592547.4852571967 0  250015.4356193061 598425.2225922942 0  245872.072249477 577604.9761853142 0  262002.1583249522 579753.4663046852 0  257732.6630933878 586227.970805314 0  250242.5556457866 577017.3316409125 0  244921.6453001869 581816.6358421432 0  256520.3890639471 580904.824006648 0  240779.0970645865 599524.6679555867 0  257100.1829219198 574459.5922545703 0  239912.2630002034 595231.1172704464 0  244703.0875078634 590068.6945953515 0  242549.5490268674 592874.3693043783 0  251586.0465921376 581796.2215047925 0  246643.189997516 596527.447801719 0  251049.7658069622 591057.6752245198 0  253014.5731561695 596998.6601086652 0  238680.2197353724 584542.2309791476 0  259715.365803504 591937.1938619445 0  254097.157218761 575731.4494927844 0  246806.6408589328 586139.0877599345 0  246136.1179750556 602959.471719323 0  253520.7033332401 602835.180253843 0  244125.4295793909 607538.9817227355 0  252546.8895354472 599881.3279113505 0  258289.0983523553 600397.640191779 0  247518.7952199645 583037.3718217331 0  263140.3959879661 582529.2228421422 0  262894.8586894067 585442.3590432997 0  256968.6320599076 593040.7691844478 0  243573.0187527719 600218.2795730785 0  258888.5766127351 595139.7745218446 0  262588.7569809347 576734.8569237856 0  259318.4257992262 580601.2540325444 0  249963.3812725965 607065.7205847671 0  257494.5307999607 583482.5893534871 0  258906.4757205145 572278.8089438241 0  237751.446593475 587300.5805003279 0  255142.4708720699 604956.7580261135 0  258485.4978753244 597756.9250383095 0  255516.7820591553 587791.39641967 0  239758.4692108706 601926.8203218657 0  255873.0092222999 577739.5085867504
[...]
<PointData  Scalars="f_32-1"> 
<DataArray  type="Float64"  Name="f_32-1"  format="ascii">3.8378416578943714e+01  3.9556527761219051e+01  4.1397642410643421e+01  4.3029090367257226e+01  4.4253854524985883e+01  4.6159111157990964e+01  4.6758084312709933e+01  4.7175603652753793e+01  4.7204532580158471e+01  4.7733939048794028e+01  4.8069328315257927e+01  4.7937955136338672e+01  4.8150834849298249e+01  5.0518119810698714e+01  5.1824243752167234e+01  5.3014807261932923e+01  5.4415196405605769e+01  5.5779916735894112e+01  5.5746246325731427e+01  5.6122548057533471e+01  5.8096967083691318e+01  5.9698291696861801e+01  6.1490877396462906e+01  6.2418834829136145e+01  6.2904372473059297e+01  6.4079909627987973e+01  6.4417180853872125e+01  6.5055410349719381e+01  6.6252787433108651e+01  6.6972510262957726e+01  6.7147386254851398e+01  6.7589351581448497e+01  6.8665847248799849e+01  6.9516794949830683e+01  6.9674795174930722e+01  7.0511215602279989e+01  7.1647798779154897e+01  7.2842320591091266e+01  7.3692859251141783e+01  7.4435371847306968e+01  7.5542808531799167e+01  7.6573022071752277e+01  7.7509281450653248e+01  7.8329685121813355e+01  7.9061930070410725e+01  7.9216714670288852e+01  7.9613283744531955e+01  8.0120099025675685e+01  8.0511393715701587e+01  8.0691658714010529e+01  8.0726713942738769e+01  8.0761317075742255e+01  8.0749249457937097e+01  8.0826485052248159e+01  8.1010945664643103e+01  8.0996732998623841e+01  8.0999508267728487e+01  8.1075481577532940e+01  8.0874734649446410e+01  8.0229726329775346e+01  7.9483164373490524e+01  7.8864389948451375e+01  7.7871646742392642e+01  7.6258857883607320e+01  7.6098013380801802e+01  7.8142046671151959e+01  7.8672769602560280e+01  7.8794668816091800e+01  7.8933199472644574e+01  7.9132281361547939e+01  7.9393100027167961e+01  8.0344202493343332e+01  8.0695218735617686e+01  8.0890744892024927e+01  8.0934030178786657e+01  8.0719559540932849e+01  8.0192413235683702e+01  7.9652383171412808e+01  7.9069976679659177e+01  7.9372142098658514e+01  7.9639675425202796e+01  8.0029491557783459e+01  8.0150225014278348e+01  8.0138266216551557e+01  8.0178081347795327e+01  8.0148641371646278e+01  7.9879500358390899e+01  7.9042368889285655e+01  7.7692066582083015e+01  7.7520230833768295e+01  7.8857324404205585e+01  7.9441440231109667e+01  7.9621840052587032e+01  7.9481093948641501e+01  7.9556767173620727e+01  7.9410408042814652e+01  7.9392581148334074e+01  7.9197504669433869e+01  7.9108911597920766e+01  7.8847375468083655e+01  7.6792730454388831e+01  7.4607534565638261e+01  7.1860213415844726e+01  6.9238652589625403e+01  6.6742643450992816e+01  6.4585620420536401e+01  6.2831001927172110e+01  6.1231429483377461e+01  5.9484092931616466e+01  5.7950338588105090e+01  5.6074331729381861e+01  5.5110331315757371e+01  5.5369094249497309e+01  5.8592905925629942e+01  6.1060157720719772e+01  6.1999825861860593e+01  6.2938516407971470e+01  6.4524985863778568e+01  6.6582320789761212e+01  6.8831593182504122e+01  6.9454153218863993e+01  6.9461258696635596e+01  6.8518884041152404e+01  6.6620761451257465e+01  6.6244808003782339e+01  6.7973393049989184e+01  6.9138177434982765e+01  6.9537816245728209e+01  6.9541638173351544e+01  6.8299794473864949e+01  6.4190396705454631e+01  6.3520373361236111e+01  6.2519824853068179e+01  6.1967706721257613e+01  6.1128254098024435e+01  6.0111185804097765e+01  5.8875497407907176e+01  5.7669738970733398e+01  5.6627134847754256e+01  5.6195751465304554e+01  5.5931447749871680e+01  5.5860153107538210e+01  5.5627855742098305e+01  5.5555900143018818e+01  5.5564583439891265e+01  5.5908776910774478e+01  5.6462720320237885e+01  5.6586154624819777e+01  5.5568902881460559e+01  5.4124086708265899e+01  5.3023978843544505e+01  5.2327940277157474e+01  5.2040546326151201e+01  5.0681463322759811e+01  4.9490955397383757e+01  4.8415182554265925e+01  4.8068609653982648e+01  4.7039380352119863e+01  4.5664864883139479e+01  4.5623278408437351e+01  4.5260241648628579e+01  4.4534402305936936e+01  4.2594904352999635e+01  4.0288582279203993e+01  3.8944071926987014e+01  3.7536752144043454e+01  3.6374266990162603e+01  3.5250044408712931e+01  3.4641532659612849e+01  3.4222041271220576e+01  3.3376589506899698e+01  3.2863498914164687e+01  3.2795562488439813e+01  3.2711045364893423e+01  3.2230935412959248e+01  3.1787704724595546e+01  3.0783711100131217e+01  2.9990357098618592e+01  2.9943100735285419e+01  2.9065502254652362e+01  2.8953011805288071e+01  3.0563019801126146e+01  3.0728225179840578e+01  3.0691883048348526e+01  3.0448073825748640e+01  3.0158831271549015e+01  2.9896258449498561e+01  2.9917090410129155e+01  3.0350995945973434e+01  3.1025333970502555e+01  3.1728914326572411e+01  3.2343103348816101e+01  3.3169002054456215e+01  3.3668489186716812e+01  3.4331075526494232e+01  3.5592564112746949e+01  3.7113304319524467e+01  3.8016239863880024e+01  3.8003017694730268e+01  3.7914957368854608e+01  4.8033446412223043e+01  5.5918330777875688e+01  7.8417117088363398e+01  8.0612827692236735e+01  8.0987676880586136e+01  7.8392987394363132e+01  8.0873188441875371e+01  4.5511401609230568e+01  7.8195098428742810e+01  7.9586619413534606e+01  6.7595034183120177e+01  6.6899418726536965e+01  5.5679645008536376e+01  5.5570970497242705e+01  7.9937652518615977e+01  4.8033457109510223e+01  4.7947485723790336e+01  7.8157253212923138e+01  7.8657933303090005e+01  4.5510077462950534e+01  7.7400573961555807e+01  7.9586722479851488e+01  7.8818222800323426e+01  7.8018599932232434e+01  7.9528658804969467e+01  7.8088970416844106e+01  7.9527968622683375e+01  4.4483324992646153e+01  6.0882664149969287e+01  6.9594512102602692e+01  4.5695404233032470e+01  3.1394222583448961e+01  4.6378639078098708e+01  6.9246775239797657e+01  5.5313146519309925e+01  5.9254136675929821e+01  3.8646729416503256e+01  3.7215264428072999e+01  6.8709906004485973e+01  4.3173681826951366e+01  7.5606375036217642e+01  6.1664217083421597e+01  4.7153425513126820e+01  5.2173543430006269e+01  6.2256070893039308e+01  3.1158890706431965e+01  7.1969371162350001e+01  5.6421392641967358e+01  6.3836015425890523e+01  4.7490859211342823e+01  3.2582727370615679e+01  4.1282150158922988e+01  4.0300035950001885e+01  5.2286664096092601e+01  3.9179232330412844e+01  7.4906106480797717e+01  3.3756091018221220e+01  6.9949391616411404e+01  5.7898478706937986e+01  6.4554084792725035e+01  4.6765690542999693e+01  6.6640349964257581e+01  5.4296057023803201e+01  6.1633825465882389e+01  5.9695723397367153e+01  5.1324851926390281e+01  3.4104467195330109e+01  5.4572470895857833e+01  7.3254126283220600e+01  6.8590889941117879e+01  7.8785253126815718e+01  6.4726841412289119e+01  6.3922479400811874e+01  5.1525353094839076e+01  3.6008749322765468e+01  3.8764874870694698e+01  5.4163185238412240e+01  7.2927223281978286e+01  5.6411069546542727e+01  3.2367018296041152e+01  3.5224600174238802e+01  7.4831005963914166e+01  4.1168538158127319e+01  3.0144987313416646e+01  6.2597645079547895e+01  6.9983579143341146e+01  6.0212789988632998e+01  4.0380303357312656e+01  7.8327251878358226e+01  3.3627587722433312e+01  4.7130379636885642e+01  5.4742608215245923e+01  5.9672446377165031e+01  5.1795812242576638e+01  4.3138107109183984e+01  4.0566611722727771e+01  4.9865819996015063e+01  4.3386253050338269e+01  4.3662673562998542e+01  4.1303658476483733e+01  4.4706931141793284e+01  7.7900074596290111e+01  7.2408201179266754e+01  4.8759409275405474e+01  7.6611207959270601e+01  6.9843054793583732e+01  6.6704344997410857e+01  7.4285957513802060e+01  5.7698968417676909e+01  5.4411632404372007e+01  5.9658666763311231e+01  6.6524677039174406e+01  5.2916283609817079e+01  7.1852996994522996e+01  4.3564928870171819e+01  6.0268899853295380e+01  3.0240689260583750e+01  4.3696097878798525e+01  6.3188780674702478e+01  7.1528856751097862e+01  5.6823059288447965e+01  6.5327333210022658e+01  5.6135182660053424e+01  6.6270433252377700e+01  3.2055407772338178e+01  4.6509581735122424e+01  4.9182066151224063e+01  7.3534793380347665e+01  6.1200938497818278e+01  3.4181218683774148e+01  7.3138869438170843e+01  5.8272790469958380e+01  7.7554695565051759e+01  3.0984452552074554e+01  7.8133081732926485e+01  7.8063765440784707e+01  5.0995468620836128e+01  4.7081279561275274e+01  7.8126806606389891e+01  7.9014800335475201e+01  7.6417531625997299e+01  7.8311845189798888e+01  6.5941613692496787e+01  3.3388667441243442e+01  7.4395814113673637e+01  6.9977890167804759e+01  5.1844397938818240e+01  4.6697598718125342e+01  4.3843809275793078e+01  7.8795641838735179e+01  7.8055533757873803e+01  5.4070578236986407e+01  7.9042736106849858e+01  7.7139701391859433e+01  7.7604859070338648e+01  7.9138812762696432e+01  5.4775194328257207e+01  4.5348281848509806e+01  6.5760934171597185e+01  3.1687790954475194e+01  4.5444073180997265e+01  3.3549597831440479e+01  6.3915147492406895e+01  8.0415415093884590e+01  6.1548522950947401e+01  6.7052101296081062e+01  7.6831084299200299e+01  5.4526809750852465e+01  2.8950692956921277e+01  6.6428320128253702e+01  3.5803225483512485e+01  4.8485079028440431e+01  7.8115985793055600e+01  7.6321929975028013e+01  5.7337212181706363e+01  8.0416367932726502e+01  3.9525735923785881e+01  7.8605604743200416e+01  5.9074716786202735e+01  3.0175355016909226e+01  3.3598761084561829e+01  3.4074310571438190e+01  6.6782362641151181e+01  7.5396330591963746e+01  7.4813692206228183e+01  6.3361511606330588e+01  7.8546998431077782e+01  5.5551600913717586e+01  4.5430271072867775e+01  4.5416637932009102e+01  3.0204452363454365e+01  7.8123971317509614e+01  7.8289403793713390e+01  7.8355775238130960e+01  6.9731874132459595e+01  7.5170979654501082e+01  7.8379364378392424e+01  7.6955201100160323e+01  6.1795131063055450e+01  8.0945051392705921e+01  8.0900541075669949e+01  5.6376046753105648e+01  3.2376074885811398e+01  5.6404557014088638e+01  7.5594447679626114e+01  5.1758476991945365e+01  5.9639907154821820e+01  8.0578874247333417e+01  5.6366770514673831e+01  6.7646957553022347e+01  3.7869278253057537e+01  5.2091105628165479e+01  5.1385108192448193e+01  5.2643220272975896e+01  7.9014748524204691e+01  4.6549491346968203e+01  4.7325810340836014e+01  4.5697873501342940e+01  4.7205555026387614e+01  4.3871037275591746e+01  3.0391994809406587e+01  2.9190912973072916e+01  4.8343083596465114e+01  5.0801610722063842e+01  6.9256533503724739e+01  6.9196803515956091e+01  8.0778296351776319e+01  6.1610777366403155e+01  5.9305061213076563e+01  5.5656662939190667e+01  5.5342260043117037e+01  5.5241701804660259e+01  5.5071503316256980e+01  5.5048227923228659e+01  5.4792771362215092e+01  5.6767171830369186e+01  5.4853344072553597e+01  5.5424759623160170e+01  5.8751121801309502e+01  5.6892247390914129e+01  5.3990646946743617e+01  5.5391308967058663e+01  4.1288309174844457e+01  4.2771994268054470e+01  4.0860651492493112e+01  3.9586491850740813e+01  3.9808460829802030e+01  3.8264832814366926e+01  3.9100464434289528e+01  3.8514625695065071e+01  3.5744872025367016e+01  3.4719268658066703e+01  3.1597359745229912e+01  3.2033389201307742e+01  3.1974509308809516e+01  3.2728195037655226e+01  3.2296110538789875e+01  3.3417521921108339e+01  3.3380406355729903e+01  3.2684715932734477e+01  3.4018956107406929e+01  3.3587686496950781e+01  3.4380260666529459e+01  3.3877002104634855e+01  3.5062833225659610e+01  3.7013983732571482e+01  3.5833196753569773e+01  4.0442347400493077e+01  4.2648544599667574e+01  4.2172984689317495e+01  4.4409173824747661e+01  6.1187296825467534e+01  6.1099401124053948e+01  6.0587151730711120e+01  6.1764738424634402e+01  6.7692783250629219e+01  7.1095260041361499e+01  6.8293571647321855e+01  7.0539277697247655e+01  4.8575186003769488e+01  4.5107056107016220e+01  4.4035092679478012e+01  4.4892812648363403e+01  3.2613815700161766e+01  3.4288188023844981e+01  3.2899526293996871e+01  3.3167544012475858e+01  3.1965054992856590e+01  3.1529326448927641e+01  4.9677724715681300e+01  5.0271201415586567e+01  4.3193589696130985e+01  4.7059715412584502e+01  4.5357145480303842e+01  6.9650793265715890e+01  6.6967824126700563e+01  5.4297790457878293e+01  5.4587657874690635e+01  5.6616452895806866e+01  5.4421836723772117e+01  5.6004175273893850e+01  5.4582466466945988e+01  5.8200715572703899e+01  6.0539581614370611e+01  5.9886041643933389e+01  3.4103243796138095e+01  3.6553189931091936e+01  3.8773549598563214e+01  3.6984520744303502e+01  3.7807099390234782e+01  3.8509145035255884e+01  4.2652568268668503e+01  3.4316472826193035e+01  3.5357558655312026e+01  4.0489286688482331e+01  4.0163096371703020e+01  6.5846793126749631e+01  7.0683158100220581e+01  6.7062637970531881e+01  7.1671308180007216e+01  7.4586671844683480e+01  6.4756672769526205e+01  5.9079385808435369e+01  6.3465491644467228e+01  6.1079700137253646e+01  4.2965086288232200e+01  4.8219670589247976e+01  5.0231540844400655e+01  4.4039961638703609e+01  6.5715976880892114e+01  6.2471158906115939e+01  6.3308956930867609e+01  5.9956127049995239e+01  3.2338353343246105e+01  3.1593496241177174e+01  5.6092586557622560e+01  5.4772639262834588e+01  5.3545838428825263e+01  6.4815060318750398e+01  6.2443352826549209e+01  6.5599447804140283e+01  6.2639036974664407e+01  4.9420199837404851e+01  4.5963609132649239e+01  4.5371453570917886e+01  4.6716560150933809e+01  4.6817566911625647e+01  4.8516130176295846e+01  3.3258247402904516e+01  3.3031784815857485e+01  3.3083153703669126e+01  3.2683918442717619e+01  3.3075932615159104e+01  3.3206574709441774e+01  4.1147090157839123e+01  3.9760517728820595e+01  4.2649297445860071e+01  3.9459153750300736e+01  3.5613129144896909e+01  4.1499092986668508e+01  4.1752315123428076e+01  4.2487958777708258e+01  3.7033680287820722e+01  3.9711809726145731e+01  5.1662806825777835e+01  5.4084429808744993e+01  5.1664241403440947e+01  4.9835712333255096e+01  3.7158746476235123e+01  4.0756628610956348e+01  3.5615244896344670e+01  4.1161488946368223e+01  3.4083604679965056e+01  3.2278153481373131e+01  3.3710395752307043e+01  3.2924694103211507e+01  3.3552911465210492e+01  3.2881755714928701e+01  3.3935444393554228e+01  5.6504211602272804e+01  5.6841308209844925e+01  5.9264111400895999e+01  6.0094040060046446e+01  6.4888873640297646e+01  4.4971391331600088e+01  4.5234172839141060e+01  6.4909280183598241e+01  5.6844103848996440e+01  5.3706063770034731e+01  5.2694268913177069e+01  5.6396342198614690e+01  6.2541765545626482e+01  6.0725106358426345e+01  5.8550749725447879e+01  5.8103141728197414e+01  5.2646374394719537e+01  4.8245898425129219e+01  3.4057685490103751e+01  3.4703756745830773e+01  3.4092058205430511e+01  5.4325375836811219e+01  5.5023120751294755e+01  6.9512663499919313e+01  7.2366251290227822e+01  6.6634825405214329e+01  7.0630159366059402e+01  6.7242276233450752e+01  6.6806750042558662e+01  6.0973652899982660e+01  6.1258996542838069e+01  4.8508092849078309e+01  3.4811490317309975e+01  5.1264541136982707e+01  5.4359018962899938e+01  3.2283093000632256e+01  3.3045569694999763e+01  3.2439329657979343e+01  3.8979752898421701e+01  4.1278840067089391e+01  4.4652083053994517e+01  4.1834800566538810e+01  4.0641169650155121e+01  4.6647591662842764e+01  5.4454562314087752e+01  5.4517667407694148e+01  5.5538899427938546e+01  5.5214054258952729e+01  5.8584744571802140e+01  5.8642596318085218e+01  4.9399096385711530e+01  4.6325420622648664e+01  4.3397357808948584e+01  4.6555058543850961e+01  4.3883670546254542e+01  4.1392412881003928e+01  4.3133848710202216e+01  5.0718337098185870e+01  4.7098395048127024e+01  6.9164417382391690e+01  4.8187918600683737e+01  4.4628679535546837e+01  5.5323598667318130e+01  5.8322721744080859e+01  6.3301442192491713e+01  6.1281234986189716e+01  3.3860766793856719e+01  3.1654722147062724e+01  3.3883244325323176e+01  5.4609053116898316e+01  3.3012935456064483e+01  5.5042427002543405e+01  3.7677959314214263e+01  3.4703722632308477e+01  5.6289862631039099e+01  4.1977490799858550e+01  6.1434391330702020e+01  3.1952165409705028e+01  3.2307973954022081e+01  3.1783497813579569e+01  3.1550263416489678e+01  3.2025207345934980e+01  5.5187757969664091e+01  3.7010441076368465e+01  3.9915644441341612e+01  3.8460289232397741e+01  6.8700971237537587e+01  5.1979772297732502e+01  4.5021606632712803e+01  4.5343836253641946e+01  4.7181388860271724e+01  3.2104837244138793e+01  6.2230185978783325e+01  6.2852052005966414e+01  3.2589332105981548e+01  3.2555549032748729e+01  4.0208912353751330e+01  3.9857085000665940e+01  3.7807031431725264e+01  5.0681453035130268e+01  5.3858787052987836e+01  5.5453398685315150e+01  5.2988486261368898e+01  5.6412980693339776e+01  3.4478812298680950e+01  3.4032786238308802e+01  3.4318245052977311e+01  3.4156316090266387e+01  6.2738509586836237e+01  3.4233739105555955e+01  3.6203341031544554e+01  3.7154656922258397e+01  4.1619704695373485e+01  4.1413765465834132e+01  4.2196219226068429e+01  4.0684873394548191e+01  3.4513270304640635e+01  3.3376678767257069e+01  3.3930782721554358e+01  4.3475321927837150e+01  6.6050037684999083e+01  6.6667050472311786e+01  6.7818740990218259e+01  5.7132906487789697e+01  5.9928818951629175e+01  4.5697304717976934e+01  4.3708708610533904e+01  4.3385637149608250e+01  4.4159724911053047e+01  5.7282554073610982e+01  5.4976949981366914e+01  5.5575743926129562e+01  3.1976306312146125e+01  3.1869605399364843e+01  3.2297318905072586e+01  4.6473604428322894e+01  4.8026083377365829e+01  4.6868789736549125e+01  4.5256063188601381e+01  5.9713944484799185e+01  3.3159112305164548e+01  3.3221337859113490e+01  3.3290949633805624e+01  5.4805113836840384e+01  5.4671998002155355e+01  5.4673026605779789e+01  3.8392724121179960e+01  3.9571777558761681e+01  4.0379811355470963e+01  3.3999543599125040e+01  3.2514181544009013e+01  3.2715767322138149e+01  5.5769802482280369e+01  5.7365125928622788e+01  5.6429553761818944e+01  5.5710135468428746e+01  5.5638995642822429e+01  5.6269499104512590e+01  5.5176492078125960e+01  4.1009690173678315e+01  3.2837144235932371e+01  3.9910191237795097e+01  6.1766514437385204e+01  4.4482886380431189e+01  4.4115241093331719e+01  3.1880491903675075e+01  3.2620099956124946e+01  3.3481643290562808e+01  3.4940935581580369e+01  3.3278145161191603e+01  3.2762245842326415e+01  4.4053516636712224e+01  4.2160739576578898e+01  4.3577636060394667e+01  5.5150366392183777e+01  5.4913142442600297e+01  3.3264488607636892e+01  3.4577969594812998e+01  3.5216338376955783e+01  3.6227489515942992e+01  4.1435497008479729e+01  3.4421212465098378e+01  3.5507796692663270e+01  3.4381669456197940e+01  4.2986810533631093e+01  6.8073790751684996e+01  4.3593895757843242e+01  4.6427187409097876e+01  4.6119461268088052e+01  6.0719414307010126e+01  6.1474138262332801e+01  6.0042323456282070e+01  4.5919846582998908e+01  4.7894393313136675e+01  4.5475162130869137e+01  4.0490317732464405e+01  4.8890110022972507e+01  4.9381589354568895e+01  3.4032126382794473e+01  3.3981004230328573e+01  5.7717638178557607e+01  5.7227988816501906e+01  5.8639983444674122e+01  3.4341628535037799e+01  3.3021678557879987e+01  </DataArray> 
</PointData> 
</Piece>
</UnstructuredGrid>
</VTKFile>