<?xml version="1.0"?>
<VTKFile type="UnstructuredGrid"  version="0.1"  >
<UnstructuredGrid>
<Piece  NumberOfPoints="784" NumberOfCells="1320">
<Points>
<DataArray  type="Float64"  NumberOfComponents="3"  format="ascii">266913.131276 586512.314988 0  266738.13716 587762.325998 0  266363.132677 589012.328643 0  266175.641078 590169.601714 0  265666.575631 591040.7699119999 0  264875.64001 591687.766419 0  264900.636161 591845.049083 0  266088.14152 592012.3229499999 0  265561.959259 592661.17101 0  264288.136855 593037.368683 0  263865.194033 593999.8486949999 0  263850.641856 593236.729596 0  263625.634872 592756.525286 0  262689.574249 593299.848918 0  262475.636737 594003.0907310001 0  261934.554452 594340.929792 0  261725.631329 594932.094409 0  261729.256443 595728.498809 0  262138.136044 595012.330523 0  262288.141035 596262.333669 0  261488.994028 597511.480605 0  261234.15567 598316.338928 0  260815.635063 599014.863821 0  261400.643658 599389.7367680001 0  261322.963374 600022.185065 0  261119.455248 600931.061306 0  261607.436504 601293.0629359999 0  260807.446929 602089.899812 0  260025.642878 602988.868697 0  259613.135827 603937.3854499999 0  259050.643123 604100.987861 0  258411.880065 603988.6335979999 0  257764.357469 604449.872569 0  257971.239668 605320.429125 0  258041.396867 605740.635381 0  257188.143339 606987.394312 0  256038.141198 608112.3554550001 0  254788.141633 609087.4026939999 0  253588.140656 609812.362881 0  252338.135706 609737.4048949999 0  251088.138116 609787.404055 0  249963.12851 610287.399466 0  248613.130524 610462.365857 0  247363.132198 610687.407659 0  246113.130532 610837.411551 0  245832.347438 610918.209918 0  245016.946433 610958.5639439999 0  244313.129646 610762.372259 0  244400.622144 611378.093316 0  243939.669208 612460.8930899999 0  242960.649733 611984.892792 0  242170.381438 611919.647351 0  241888.122919 611112.375656 0  241393.380757 610467.6456149999 0  240594.157528 611306.369822 0  240525.621947 610804.648112 0  240363.123632 610512.3745050001 0  239113.123247 610262.374278 0  239813.12126 609037.412459 0  240588.122952 607812.368199 0  241013.119545 606625.9534560001 0  241454.373249 605724.888025 0  242238.120107 604687.3993 0  243088.121248 603462.362766 0  242860.319451 603007.3932640001 0  241563.116617 603812.361344 0  241778.400913 604327.642217 0  242059.837234 604824.879102 0  241475.620201 604923.2402390001 0  241462.182234 605449.881372 0  240906.219606 605674.888222 0  240241.856192 606891.125066 0  239891.734044 607841.012479 0  239048.653431 608724.889805 0  238118.054545 608974.895967 0  238888.111029 607337.406468 0  239738.119992 606212.362729 0  240288.12044 605687.4075229999 0  240380.212307 604729.521696 0  239347.309632 604603.204501 0  238888.112036 604387.408787 0  237913.11173 604687.401386 0  236784.172023 604499.882783 0  236883.408793 603717.08334 0  236154.933927 603595.565605 0  235688.103943 602912.369264 0  235763.108033 601662.366516 0  236363.110805 600412.35884 0  236738.107995 599162.356577 0  236525.607944 598482.2412899999 0  236138.109208 599362.357613 0  235725.063048 600325.4466510001 0  235091.948926 601408.5220979999 0  235188.10921 600312.366344 0  234375.602405 600833.9674270001 0  234663.109308 599912.358011 0  234138.105122 600062.365644 0  233955.307245 599029.561063 0  233338.103791 598387.401556 0  233988.09795 597862.356384 0  235138.101489 596637.3947750001 0  235563.1039 595387.392428 0  236513.103639 594212.356312 0  237163.10684 592987.3929869999 0  238313.103031 591862.3515540001 0  239513.107028 590812.3512640001 0  240638.102135 589787.387271 0  241463.109549 588587.378486 0  242294.489816 587443.735215 0  242913.101099 586512.341804 0  243544.066915 585474.859604 0  243040.448415 585184.975583 0  242438.10214 585337.38015 0  241313.102353 586562.339499 0  240538.107104 587787.382449 0  240114.641085 588588.939407 0  239388.100256 589437.382238 0  238188.104456 590512.346358 0  236938.100507 591362.349798 0  235813.10453 592537.396388 0  234864.502938 593178.7753880001 0  234463.097651 592862.357267 0  235113.0965 591662.3545979999 0  235713.101522 590412.346099 0  235777.688431 589976.7582779999 0  234943.583145 590706.265132 0  234462.482256 591490.2841159999 0  233801.497784 592112.940187 0  233388.099101 591787.394208 0  234013.093099 590437.393065 0  234776.217248 587148.7548100001 0  235163.093726 586562.3486189999 0  235313.098918 585483.229012 0  235250.59732 584662.298153 0  235588.093896 583337.379493 0  236329.432041 582199.858992 0  237188.096234 581462.3349939999 0  237463.088521 580212.335511 0  238350.592558 579057.652616 0  238591.415797 578574.847681 0  238313.094106 577612.328905 0  239229.696732 577695.769664 0  240195.161018 577513.008613 0  240614.996733 577149.8518770001 0  240663.091715 577412.332622 0  240288.092486 578662.334085 0  239942.357258 579508.095811 0  240438.100019 580212.3334220001 0  241338.095553 580387.375355 0  241238.099828 579137.369157 0  241788.097003 577887.370889 0  241983.554649 577241.9220939999 0  242054.178239 576927.8105029999 0  242588.100699 575737.366175 0  243149.324833 574898.583978 0  243695.278626 573919.517981 0  244268.494418 573724.8454239999 0  244995.134063 573930.2767810001 0  245417.314363 573391.601898 0  243450.599125 571859.479773 0  245776.797908 572599.8353060001 0  246779.639852 572973.285167 0  248034.741935 573186.082054 0  249413.10651 573162.3205520001 0  250496.922226 573271.1521899999 0  251613.105126 573237.3551319999 0  252421.824577 572846.032906 0  253256.245022 572580.4733130001 0  253739.471933 571960.9547369999 0  254174.511864 572149.8346569999 0  254484.944333 571684.194807 0  254384.108649 570891.346712 0  254344.002752 570218.26407 0  255025.609604 570829.0294979999 0  255715.005913 570489.264586 0  256218.846343 570774.828355 0  256834.349083 570508.5908 0  257390.092515 570014.308325 0  257624.431042 568493.478911 0  259355.811717 569380.021819 0  260033.372814 569617.066669 0  262679.741751 570320.699974 0  263289.115756 569524.817815 0  263463.114338 570512.301061 0  264638.198419 570687.3443539999 0  265058.220065 571334.378467 0  265447.561421 572077.90485 0  265488.125257 573137.3446020001 0  265131.937715 573963.293593 0  265432.389648 575093.068786 0  265638.122314 576338.029955 0  265750.630817 577371.8281319999 0  265738.570663 578561.9098850001 0  265875.630866 579139.630549 0  266213.129247 579862.311842 0  266563.130472 581112.314509 0  266238.135356 582362.310259 0  265938.12863 583612.320897 0  265738.131342 584762.3210189999 0  266875.638633 585365.358768 0  264018.7239399826 593650.4646671159 0  262236.3944351029 595831.1252656333 0  241846.246678 605206.1436625 0  240200.622106 608424.8903290001 0  240943.4862974102 610939.7757535663 0  236550.6094 599787.3577085 0  238528.1212051503 608102.9081793013 0  244413.4891967989 572609.5960859474 0  236382.0474488751 598808.3067022427 0  235369.601910944 600933.5380148316 0  235413.099011 591037.3503485 0  235446.2251831186 590266.6553871984 0  240475.5921005 578037.3333535 0  240413.173949154 577324.4280286073 0  240574.037899 606283.0066440001 0  263857.9179445 593618.2891454998 0  264153.4303974913 593343.916675058 0  242042.1833925 604946.7714812499 0  241650.3099635 605465.51584375 0  244613.6985165 572229.6575395 0  236631.8579695 598822.2989335 0  235140.029068 600860.444221 0  241767.7287175 604874.0596705 0  242140.15174975 604817.0853906251 0  234781.8558075 600573.1668855001 0  242091.167571125 604881.9284359375 0  234519.3558565 600373.162719 0  254604.8337712102 583989.0014118921 0  250699.5846056537 594617.3297041012 0  250540.4796469513 602258.2940568649 0  248483.7490186612 580334.7345534252 0  258549.2190328319 577893.951823392 0  257067.0067473103 590016.5327808241 0  243285.0921999099 596333.923437875 0  248333.1386145258 589098.0389905117 0  256142.8445072741 595883.3911551933 0  260245.1368072523 583315.2785712298 0  253472.3380211276 578932.2908163272 0  246432.3347504817 599884.5019511909 0  261555.9240922556 588041.186709004 0  247293.1100123104 605823.8307887657 0  246458.2798550911 593168.8646574575 0  252840.0183145193 588226.5564648228 0  249828.2874404451 584740.7888937403 0  255409.5660975206 600458.8956828594 0  260819.9733392385 574219.403683011 0  252584.2262054711 605722.6603825617 0  254049.8830611471 592547.4852571967 0  250015.4356193061 598425.2225922942 0  245872.072249477 577604.9761853142 0  262002.1583249522 579753.4663046852 0  257732.6630933878 586227.970805314 0  250242.5556457866 577017.3316409125 0  244921.6453001869 581816.6358421432 0  256520.3890639471 580904.824006648 0  240779.0970645865 599524.6679555867 0  257100.1829219198 574459.5922545703 0  239912.2630002034 595231.1172704464 0  244703.0875078634 590068.6945953515 0  242549.5490268674 592874.3693043783 0  251586.0465921376 581796.2215047925 0  246643.189997516 596527.447801719 0  251049.7658069622 591057.6752245198 0  253014.5731561695 596998.6601086652 0  238680.2197353724 584542.2309791476 0  259715.365803504 591937.1938619445 0  254097.157218761 575731.4494927844 0  246806.6408589328 586139.0877599345 0  246136.1179750556 602959.471719323 0  253520.7033332401 602835.180253843 0  244125.4295793909 607538.9817227355 0  252546.8895354472 599881.3279113505 0  258289.0983523553 600397.640191779 0  247518.7952199645 583037.3718217331 0  263140.3959879661 582529.2228421422 0  262894.8586894067 585442.3590432997 0  256968.6320599076 593040.7691844478 0  243573.0187527719 600218.2795730785 0  258888.5766127351 595139.7745218446 0  262588.7569809347 576734.8569237856 0  259318.4257992262 580601.2540325444 0  249963.3812725965 607065.7205847671 0  257494.5307999607 583482.5893534871 0  258906.4757205145 572278.8089438241 0  237751.446593475 587300.5805003279 0  255142.4708720699 604956.7580261135 0  258485.4978753244 597756.9250383095 0  255516.7820591553 587791.39641967 0  239758.4692108706 601926.8203218657 0  255873.0092222999 577739.5085867504
[...]
<PointData  Scalars="f_32-1"> 
<DataArray  type="Float64"  Name="f_32-1"  format="ascii">3.8246384178327553e+01  3.9432981445232038e+01  4.1276262757948217e+01  4.2922973436862151e+01  4.4149977886921533e+01  4.6045771875781384e+01  4.6654627959509071e+01  4.7071178436551662e+01  4.7103449962675185e+01  4.7653216631339134e+01  4.8003330190356344e+01  4.7862191230474103e+01  4.8053209535407859e+01  5.0392650831858298e+01  5.1714550698749427e+01  5.2864931119886506e+01  5.4260837242772723e+01  5.5645759412940080e+01  5.5617758735612874e+01  5.6004166619442167e+01  5.7980860438493195e+01  5.9581016446555275e+01  6.1376695040250965e+01  6.2316704867895858e+01  6.2808450294314156e+01  6.3991365251072864e+01  6.4331451869921054e+01  6.4977811289637614e+01  6.6184963305932456e+01  6.6909058025408157e+01  6.7080542227507621e+01  6.7506963056510457e+01  6.8568465961162588e+01  6.9422234303336879e+01  6.9581217701697454e+01  7.0417396369651925e+01  7.1558206758828007e+01  7.2759726284683367e+01  7.3616227245420717e+01  7.4357536649688072e+01  7.5464814293261171e+01  7.6497787242568833e+01  7.7431989692155994e+01  7.8249853946439970e+01  7.8978426069081763e+01  7.9132216684720774e+01  7.9526337412760725e+01  8.0031840625925213e+01  8.0423571386712510e+01  8.0604944186101619e+01  8.0640303056452169e+01  8.0675105841893583e+01  8.0662382920545610e+01  8.0739838411926030e+01  8.0926925415802089e+01  8.0912490543728552e+01  8.0915347349201596e+01  8.0992663614014873e+01  8.0788883781699568e+01  8.0139140228385770e+01  7.9391699794551641e+01  7.8773697527572040e+01  7.7783178316196370e+01  7.6175676203802666e+01  7.6015421517588450e+01  7.8052159238883803e+01  7.8578391554471366e+01  7.8698783448481549e+01  7.8836400595115364e+01  7.9035032075561446e+01  7.9294959821581472e+01  8.0247438487716281e+01  8.0601879312419456e+01  8.0801482303455359e+01  8.0845929037248084e+01  8.0626740310663394e+01  8.0094014482177940e+01  7.9553932836990185e+01  7.8978317029436738e+01  7.9291062892307025e+01  7.9561829112337918e+01  7.9952154807826673e+01  8.0071479559648836e+01  8.0060455186421365e+01  8.0101004293850238e+01  8.0072660654753022e+01  7.9805639646905334e+01  7.8971462579988057e+01  7.7619394098915379e+01  7.7451923759278699e+01  7.8792044881626580e+01  7.9376932137820162e+01  7.9556448055685834e+01  7.9416921333414621e+01  7.9493304974103125e+01  7.9348064023773091e+01  7.9331260245494320e+01  7.9138220186735339e+01  7.9051055942729292e+01  7.8788870060155375e+01  7.6730755042273373e+01  7.4541828185626798e+01  7.1779644371779668e+01  6.9142878875310771e+01  6.6632264673524077e+01  6.4476438647322752e+01  6.2739209954474326e+01  6.1161520898829011e+01  5.9435433810906282e+01  5.7897247863832284e+01  5.6002341312368827e+01  5.5168722633143823e+01  5.5452751494363639e+01  5.8556344011628930e+01  6.0958762452461009e+01  6.1881256042017718e+01  6.2807736320510116e+01  6.4385974121715435e+01  6.6459251340111862e+01  6.8757617370901770e+01  6.9397824686463778e+01  6.9405176248484068e+01  6.8437006218334631e+01  6.6499740452985392e+01  6.6122518653477371e+01  6.7883787389814842e+01  6.9072500431164556e+01  6.9480619494413304e+01  6.9484592626651207e+01  6.8217009798691791e+01  6.4070121295048367e+01  6.3401899958752438e+01  6.2408901881004851e+01  6.1863036296073261e+01  6.1027606791100993e+01  6.0006420071590661e+01  5.8767733563878650e+01  5.7563152209322297e+01  5.6511984492839666e+01  5.6075253891429838e+01  5.5807866616797710e+01  5.5731560905625436e+01  5.5488441579018790e+01  5.5413408091387183e+01  5.5422474292685699e+01  5.5776911249890986e+01  5.6338959342376164e+01  5.6440667118365113e+01  5.5339221137771730e+01  5.4020133500783110e+01  5.2911230653977043e+01  5.2223798969928382e+01  5.1933000682771215e+01  5.0571004125952506e+01  4.9366877769596030e+01  4.8283881681595531e+01  4.7935374290696942e+01  4.6880501692540619e+01  4.5524649903049102e+01  4.5500476938869191e+01  4.5119449961950167e+01  4.4382952303804863e+01  4.2482616538803647e+01  4.0262234738663977e+01  3.8927735998772697e+01  3.7496229063758371e+01  3.6310814478307449e+01  3.5166205507154103e+01  3.4533634467153092e+01  3.4102503304845250e+01  3.3228774519042311e+01  3.2713805385752657e+01  3.2649799243686282e+01  3.2560379945823222e+01  3.2079428638898754e+01  3.1629931664134379e+01  3.0621294292805253e+01  2.9833468055784625e+01  2.9851356723888731e+01  2.8928466159582772e+01  2.8827385439132879e+01  3.0447106422466003e+01  3.0612337617192914e+01  3.0578293067653100e+01  3.0331031798649839e+01  3.0028569542553857e+01  2.9746370382333062e+01  2.9770105781124851e+01  3.0206902562482387e+01  3.0888030256093970e+01  3.1581437079294307e+01  3.2191862107105692e+01  3.3022300370808701e+01  3.3517206305813325e+01  3.4178787922574337e+01  3.5455535261617285e+01  3.7012325732849504e+01  3.7900586331667810e+01  3.7836214089840922e+01  3.7781833782359513e+01  4.7964894680511776e+01  5.5794086224922950e+01  7.8327033337925272e+01  8.0524409815130142e+01  8.0903263294586750e+01  7.8320796977028834e+01  8.0783423079184601e+01  4.5381044550765850e+01  7.8129197720702891e+01  7.9521404641846360e+01  6.7490872065749656e+01  6.6789503599958593e+01  5.5542001793568950e+01  5.5429228166655705e+01  7.9839207136682504e+01  4.7964962602549953e+01  4.7873717075552435e+01  7.8068366195015656e+01  7.8568346771489715e+01  4.5379110842357150e+01  7.7328131775056733e+01  7.9521540344354250e+01  7.8722222613253763e+01  7.7930046221269563e+01  7.9465172733988325e+01  7.8000404182751637e+01  7.9464484168140217e+01  4.4614941158391552e+01  6.0866883891056894e+01  6.9538374250402001e+01  4.6107034800843415e+01  3.2279994232263675e+01  4.6909324050368440e+01  6.9175323797424539e+01  5.5298281899929847e+01  5.9210513714154651e+01  3.8581417096262918e+01  3.7747840497515810e+01  6.8620917674599923e+01  4.3048766494722898e+01  7.5517276387145287e+01  6.1588585241724388e+01  4.7747799611541623e+01  5.2077288055462397e+01  6.2382879059213245e+01  3.1042846151224627e+01  7.1872741681662632e+01  5.6413386251548772e+01  6.3755882909103761e+01  4.7574139092775226e+01  3.2964420316293172e+01  4.1640073536115167e+01  4.0588489456268555e+01  5.2374689577103737e+01  3.9105790521807563e+01  7.4819056425833836e+01  3.3656915703218083e+01  6.9855568166245519e+01  5.7827428878698981e+01  6.4477577256978890e+01  4.6670863580752489e+01  6.6600117280905195e+01  5.4117381923048299e+01  6.1694486697850373e+01  5.9615023951622206e+01  5.1243338134733101e+01  3.4507664479507262e+01  5.4522236333083598e+01  7.3180792338120327e+01  6.8530680892866997e+01  7.8693184819016608e+01  6.4781350780645766e+01  6.3873552779659036e+01  5.1521203024341574e+01  3.6058461629993083e+01  3.8611788393579545e+01  5.4243574126611087e+01  7.2843629034388286e+01  5.6292250271754497e+01  3.2281533765184044e+01  3.5262314025991962e+01  7.4741370003381832e+01  4.1176925909631258e+01  2.9944825993572930e+01  6.2472358103656013e+01  6.9891203898415000e+01  6.0135392415871664e+01  4.1569977401124149e+01  7.8265557460920348e+01  3.4134833242045303e+01  4.7008574335861113e+01  5.4761214119353916e+01  5.9615624709170305e+01  5.1753813127275997e+01  4.3070967416020359e+01  4.0438550606657891e+01  5.0212031127226616e+01  4.3516737189638228e+01  4.3705643006513249e+01  4.1177966956200734e+01  4.4765664287515143e+01  7.7812025435612014e+01  7.2320088802610897e+01  4.8716776048050406e+01  7.6525353761841771e+01  6.9775833964428685e+01  6.6574585214392840e+01  7.4196936261699193e+01  5.7613732764757749e+01  5.4363604273023306e+01  5.9848891088734689e+01  6.6471847563817292e+01  5.2937337392160543e+01  7.1777125514484638e+01  4.4322038609476067e+01  6.0234368571057438e+01  3.0104702049366370e+01  4.4139893034791264e+01  6.3151940575920356e+01  7.1435093204271325e+01  5.6788486011482405e+01  6.5263534176912984e+01  5.6019896601987654e+01  6.6166586110709645e+01  3.2317163515738855e+01  4.7152280462176243e+01  4.9113606421363293e+01  7.3456077225884442e+01  6.1074898591040835e+01  3.4171295886496871e+01  7.3050589249564581e+01  5.8206141338365512e+01  7.7490783302962981e+01  3.0847632123175845e+01  7.8043168828426730e+01  7.7974504693454008e+01  5.0906059811768607e+01  4.6983325643888108e+01  7.8037800608883472e+01  7.8927327931777327e+01  7.6340051345400624e+01  7.8249966579943859e+01  6.5825472483692621e+01  3.3272415690514549e+01  7.4326217016830853e+01  6.9884093461359740e+01  5.1740133712148541e+01  4.6596173435142113e+01  4.3715120250155188e+01  7.8704894597765318e+01  7.7966945485607766e+01  5.3944423428614790e+01  7.8968176052546013e+01  7.7054114226697109e+01  7.7517937008663765e+01  7.9053685325283425e+01  5.4777659116539724e+01  4.5234234482929779e+01  6.5628434155437688e+01  3.1547835041290561e+01  4.5328788225916618e+01  3.3423843391587219e+01  6.3787332999204565e+01  8.0324857989134955e+01  6.1441578321986270e+01  6.6947437929677818e+01  7.6755692096426557e+01  5.4604597326796487e+01  2.8797457908424224e+01  6.6313935635563482e+01  3.5933129545907128e+01  4.8350352139834605e+01  7.8051197498385648e+01  7.6255180698293898e+01  5.7225033718717761e+01  8.0326406842588739e+01  3.9743504703817543e+01  7.8540120804138326e+01  5.8963056410171369e+01  3.0047658552646713e+01  3.3470007073316253e+01  3.4157791073505877e+01  6.6714613248768785e+01  7.5315285629550033e+01  7.4731539957591295e+01  6.3277472085032699e+01  7.8457101485928405e+01  5.5430280003468916e+01  4.5294052152320596e+01  4.5278879388731582e+01  3.0040182979544262e+01  7.8035404220479265e+01  7.8199681083323341e+01  7.8265905405227215e+01  6.9637829081352990e+01  7.5090986035042022e+01  7.8295771974919532e+01  7.6871786830934596e+01  6.1680141484130480e+01  8.0859985316926625e+01  8.0814996821559916e+01  5.6282298958567338e+01  3.2223901428813200e+01  5.6284209578901091e+01  7.5515911851200656e+01  5.1642800656668804e+01  5.9541056085652869e+01  8.0491275917206465e+01  5.6380537833493946e+01  6.7567933756265830e+01  3.7730895319174977e+01  5.1981793432788365e+01  5.1276062549720955e+01  5.2538318077486267e+01  7.8951621723412458e+01  4.6447453283295332e+01  4.7232308707253459e+01  4.5585991240442297e+01  4.7111605406638986e+01  4.3760754532681865e+01  3.0278609816586020e+01  2.9053674964730831e+01  4.8237009514225825e+01  5.0695630068870820e+01  6.9194214490577693e+01  6.9133265989941918e+01  8.0691104248220029e+01  6.1548446899227308e+01  5.9248609861691897e+01  5.5596211518393957e+01  5.5309882674928865e+01  5.5244881061753226e+01  5.5151559687916340e+01  5.5068947377992181e+01  5.4865184613068948e+01  5.6792991416279961e+01  5.4926677025033101e+01  5.5488342757315266e+01  5.8709017726748023e+01  5.6906645637687618e+01  5.3920164393785285e+01  5.5313651216472707e+01  4.1236260329939995e+01  4.2735912530919485e+01  4.0902465038764667e+01  3.9576724586248979e+01  3.9881491295983913e+01  3.8244733124540872e+01  3.9191952481068583e+01  3.8585937190796017e+01  3.5735978679811602e+01  3.4698370690134659e+01  3.1449844027040452e+01  3.1882771969859665e+01  3.1821815003495409e+01  3.2581738074728712e+01  3.2142565128080868e+01  3.3266224502946450e+01  3.3227658123390988e+01  3.2529905011973504e+01  3.3858318741901989e+01  3.3433998233903857e+01  3.4241568875139329e+01  3.3722264209038450e+01  3.4943950038908085e+01  3.6947883155079090e+01  3.5743567922791975e+01  4.1106574304926887e+01  4.2594415511125639e+01  4.2362875787272515e+01  4.4777160796444129e+01  6.1050226056622805e+01  6.1079280303230014e+01  6.0558509198378133e+01  6.1741521916036952e+01  6.7671476820544143e+01  7.1021084790546510e+01  6.8225467128497598e+01  7.0469526014532633e+01  4.8805682178850496e+01  4.5276270879325352e+01  4.4582520693549064e+01  4.5714847071874793e+01  3.3009463427740336e+01  3.4602185770826893e+01  3.3173509635127758e+01  3.3505465467093217e+01  3.2794665212141368e+01  3.2255381798780057e+01  4.9782386460580689e+01  5.0656737043661252e+01  4.3975175846797612e+01  4.7671876196425757e+01  4.5621326865065086e+01  6.9570104848670553e+01  6.6906392842282870e+01  5.4179842913474864e+01  5.4536816421247998e+01  5.6544724997070084e+01  5.4396384234716358e+01  5.6011460775136868e+01  5.4457390723076941e+01  5.8154677002986467e+01  6.0571663806675488e+01  5.9849150804721084e+01  3.4506015091926947e+01  3.6599458465100462e+01  3.8638845717337269e+01  3.6997308019970625e+01  3.8353471776880525e+01  3.8545261375321630e+01  4.2756956780734299e+01  3.4966196390123073e+01  3.5740847759875194e+01  4.0614576246742054e+01  4.0537267542492152e+01  6.5771354000455389e+01  7.0581444025820261e+01  6.6898123553131910e+01  7.1597133897894366e+01  7.4508348967167407e+01  6.4708116085856702e+01  5.8996880344806172e+01  6.3386033102058228e+01  6.0951767420900076e+01  4.4000187258725340e+01  4.8694208011620169e+01  5.0470608437117811e+01  4.4953994527256896e+01  6.5732858158275789e+01  6.2613633532471660e+01  6.3342073448496670e+01  6.0164391316822417e+01  3.2237949034000081e+01  3.1513157728568817e+01  5.6031813131991370e+01  5.4910342720743557e+01  5.3678731933393053e+01  6.4759866898744619e+01  6.2395137491635197e+01  6.5550804600996756e+01  6.2523103518312119e+01  4.9482811357738370e+01  4.5982857625892095e+01  4.5644251856595631e+01  4.7064878666942164e+01  4.6744909788585502e+01  4.8417930452076881e+01  3.3664358735794110e+01  3.3081450023344047e+01  3.3488936231307598e+01  3.2915383953565758e+01  3.3303892672663316e+01  3.3292424461406178e+01  4.1368204723781567e+01  4.0708724541356695e+01  4.2877319846495887e+01  4.0527873857293407e+01  3.6162893530695143e+01  4.1757676325072310e+01  4.1968087847662744e+01  4.2783519660660495e+01  3.7385777146928170e+01  3.9985215896357289e+01  5.1750900382752718e+01  5.4060936790159502e+01  5.1716218802853241e+01  5.0126608876200933e+01  3.7099394640486857e+01  4.0673107058322827e+01  3.5864785892798821e+01  4.1077734464275423e+01  3.4204925853350062e+01  3.2124622638007487e+01  3.3919098569603761e+01  3.2980075747628511e+01  3.3447346384173251e+01  3.2739989491975678e+01  3.3921772969324067e+01  5.6385765172706535e+01  5.6732515384071327e+01  5.9134018208339505e+01  6.0046281003651096e+01  6.4822314326785602e+01  4.4906669300690893e+01  4.5210724542523089e+01  6.4868554228263065e+01  5.6677473925621229e+01  5.3710950969504310e+01  5.2691276844776311e+01  5.6276158986653527e+01  6.2630287519149768e+01  6.0859907948549449e+01  5.8478977285099383e+01  5.8063939586792408e+01  5.2660360942222354e+01  4.8207488887813923e+01  3.4474176045846392e+01  3.5000229101614487e+01  3.4320825264101025e+01  5.4272178115344694e+01  5.4936503553653132e+01  6.9370897859571770e+01  7.2286475027986455e+01  6.6632542455051819e+01  7.0544199882336542e+01  6.7198704450637152e+01  6.6795357765244020e+01  6.1161171701536489e+01  6.1343730682972925e+01  4.8924673564921783e+01  3.4921275688206698e+01  5.1649994449198360e+01  5.4283790021068604e+01  3.2295453948669291e+01  3.2933748952060263e+01  3.2305219734876353e+01  3.8872452865138023e+01  4.1218201857565504e+01  4.5413303109412169e+01  4.2493244937613163e+01  4.1870835398480502e+01  4.6538079993978613e+01  5.4486253462596054e+01  5.4574278272841035e+01  5.5502459760624717e+01  5.5248684159457440e+01  5.8557115543916041e+01  5.8546623123740517e+01  4.9589746712661153e+01  4.6235086767181549e+01  4.3711114425189926e+01  4.6543612968238747e+01  4.4072112224268579e+01  4.1550427160211321e+01  4.3082889048681757e+01  5.0759112389723015e+01  4.7295323854076486e+01  6.9054676198571528e+01  4.8571186154986691e+01  4.5223616884600332e+01  5.5221670205419500e+01  5.8155525643178372e+01  6.3208728998232807e+01  6.1206334807519752e+01  3.3785346374795488e+01  3.1510371339967115e+01  3.3846130780686089e+01  5.4659715763753084e+01  3.2865938974038862e+01  5.5107473460058223e+01  3.7844006123264663e+01  3.4838072739355908e+01  5.6260535031058865e+01  4.2569244083736066e+01  6.1360398039364306e+01  3.2590035161416530e+01  3.2990685876350796e+01  3.2489584226756499e+01  3.2443900374308058e+01  3.2579790777972718e+01  5.5131539970995703e+01  3.7691601177589362e+01  4.0220139784930822e+01  3.8959540880468730e+01  6.8552650327423279e+01  5.2043666446968778e+01  4.5840034679810174e+01  4.6128771775843894e+01  4.7736081315433175e+01  3.2051032380601349e+01  6.2078329921444876e+01  6.2716876971341939e+01  3.3162157735709599e+01  3.3032929805865194e+01  4.0812619537585533e+01  4.0630591470008262e+01  3.8231126767775102e+01  5.0894504611255144e+01  5.3667564495638146e+01  5.5250476920631847e+01  5.2871474499847544e+01  5.6249629408875869e+01  3.5004695249638274e+01  3.4301531912097246e+01  3.4677904188439207e+01  3.4467410802955804e+01  6.2866980689457868e+01  3.4369530517311262e+01  3.6149761582706859e+01  3.7069896687493582e+01  4.2603047574622650e+01  4.2568527466394166e+01  4.3203282323898712e+01  4.1656274240650497e+01  3.4934009310990248e+01  3.3811958200471103e+01  3.4371435247215338e+01  4.3772468505973741e+01  6.5936527080554555e+01  6.6501265785459651e+01  6.7647326699722342e+01  5.7090887544601202e+01  6.0141728874580089e+01  4.6293819069997411e+01  4.4241890026777043e+01  4.3805688715473075e+01  4.4684283495695048e+01  5.7163848746638138e+01  5.4818045928920206e+01  5.5423259432681341e+01  3.2488831705585973e+01  3.2357217836697927e+01  3.2515818667981947e+01  4.6958436839683721e+01  4.8523374522375690e+01  4.7516640333917763e+01  4.5928182355694325e+01  5.9556230293463976e+01  3.3007237222994227e+01  3.3118042574925241e+01  3.3145784448319802e+01  5.4882931420147550e+01  5.4742511352392334e+01  5.4749941541388196e+01  3.8664150854359718e+01  3.9829024077944233e+01  4.0582939414857996e+01  3.4111468595359938e+01  3.2359830656173443e+01  3.2583292322929026e+01  5.5814284147794780e+01  5.7360938256004054e+01  5.6455407498595477e+01  5.5740596692247365e+01  5.5680866361328754e+01  5.6268521131395609e+01  5.5243130806372037e+01  4.1114515415049411e+01  3.2684141714014871e+01  4.0789747496059967e+01  6.1624106964946364e+01  4.5137570094257789e+01  4.4735768553860375e+01  3.2501937371249568e+01  3.3329633987415427e+01  3.3722723173385042e+01  3.5031265192614036e+01  3.3909702972431283e+01  3.3275359990463123e+01  4.4593880241180251e+01  4.2917304872812196e+01  4.4011287753500724e+01  5.4951022153538297e+01  5.4778781817082688e+01  3.3768089403550853e+01  3.4867281706736890e+01  3.5991048075347585e+01  3.6853497911510047e+01  4.1669153768202960e+01  3.5147818135950295e+01  3.5805067581686146e+01  3.4831644904669986e+01  4.3115940171933545e+01  6.7897774080915070e+01  4.4513734487614215e+01  4.7034814253404406e+01  4.6749231970359766e+01  6.0924829393817248e+01  6.1653002251782688e+01  6.0268821066979221e+01  4.6255194855922277e+01  4.8186829341654558e+01  4.5977604329234666e+01  4.0727802849435136e+01  4.9279909643136435e+01  4.9650678851073941e+01  3.4318935340774168e+01  3.4165422853805381e+01  5.7578719101302958e+01  5.7069426554960920e+01  5.8479739654389135e+01  3.4608762536381001e+01  3.2901143226448781e+01  </DataArray> 
</PointData> 
</Piece>
</UnstructuredGrid>
</VTKFile>