<?xml version="1.0"?>
<VTKFile type="UnstructuredGrid"  version="0.1"  >
<UnstructuredGrid>
<Piece  NumberOfPoints="784" NumberOfCells="1320">
<Points>
<DataArray  type="Float64"  NumberOfComponents="3"  format="ascii">266913.131276 586512.314988 0  266738.13716 587762.325998 0  266363.132677 589012.328643 0  266175.641078 590169.601714 0  265666.575631 591040.7699119999 0  264875.64001 591687.766419 0  264900.636161 591845.049083 0  266088.14152 592012.3229499999 0  265561.959259 592661.17101 0  264288.136855 593037.368683 0  263865.194033 593999.8486949999 0  263850.641856 593236.729596 0  263625.634872 592756.525286 0  262689.574249 593299.848918 0  262475.636737 594003.0907310001 0  261934.554452 594340.929792 0  261725.631329 594932.094409 0  261729.256443 595728.498809 0  262138.136044 595012.330523 0  262288.141035 596262.333669 0  261488.994028 597511.480605 0  261234.15567 598316.338928 0  260815.635063 599014.863821 0  261400.643658 599389.7367680001 0  261322.963374 600022.185065 0  261119.455248 600931.061306 0  261607.436504 601293.0629359999 0  260807.446929 602089.899812 0  260025.642878 602988.868697 0  259613.135827 603937.3854499999 0  259050.643123 604100.987861 0  258411.880065 603988.6335979999 0  257764.357469 604449.872569 0  257971.239668 605320.429125 0  258041.396867 605740.635381 0  257188.143339 606987.394312 0  256038.141198 608112.3554550001 0  254788.141633 609087.4026939999 0  253588.140656 609812.362881 0  252338.135706 609737.4048949999 0  251088.138116 609787.404055 0  249963.12851 610287.399466 0  248613.130524 610462.365857 0  247363.132198 610687.407659 0  246113.130532 610837.411551 0  245832.347438 610918.209918 0  245016.946433 610958.5639439999 0  244313.129646 610762.372259 0  244400.622144 611378.093316 0  243939.669208 612460.8930899999 0  242960.649733 611984.892792 0  242170.381438 611919.647351 0  241888.122919 611112.375656 0  241393.380757 610467.6456149999 0  240594.157528 611306.369822 0  240525.621947 610804.648112 0  240363.123632 610512.3745050001 0  239113.123247 610262.374278 0  239813.12126 609037.412459 0  240588.122952 607812.368199 0  241013.119545 606625.9534560001 0  241454.373249 605724.888025 0  242238.120107 604687.3993 0  243088.121248 603462.362766 0  242860.319451 603007.3932640001 0  241563.116617 603812.361344 0  241778.400913 604327.642217 0  242059.837234 604824.879102 0  241475.620201 604923.2402390001 0  241462.182234 605449.881372 0  240906.219606 605674.888222 0  240241.856192 606891.125066 0  239891.734044 607841.012479 0  239048.653431 608724.889805 0  238118.054545 608974.895967 0  238888.111029 607337.406468 0  239738.119992 606212.362729 0  240288.12044 605687.4075229999 0  240380.212307 604729.521696 0  239347.309632 604603.204501 0  238888.112036 604387.408787 0  237913.11173 604687.401386 0  236784.172023 604499.882783 0  236883.408793 603717.08334 0  236154.933927 603595.565605 0  235688.103943 602912.369264 0  235763.108033 601662.366516 0  236363.110805 600412.35884 0  236738.107995 599162.356577 0  236525.607944 598482.2412899999 0  236138.109208 599362.357613 0  235725.063048 600325.4466510001 0  235091.948926 601408.5220979999 0  235188.10921 600312.366344 0  234375.602405 600833.9674270001 0  234663.109308 599912.358011 0  234138.105122 600062.365644 0  233955.307245 599029.561063 0  233338.103791 598387.401556 0  233988.09795 597862.356384 0  235138.101489 596637.3947750001 0  235563.1039 595387.392428 0  236513.103639 594212.356312 0  237163.10684 592987.3929869999 0  238313.103031 591862.3515540001 0  239513.107028 590812.3512640001 0  240638.102135 589787.387271 0  241463.109549 588587.378486 0  242294.489816 587443.735215 0  242913.101099 586512.341804 0  243544.066915 585474.859604 0  243040.448415 585184.975583 0  242438.10214 585337.38015 0  241313.102353 586562.339499 0  240538.107104 587787.382449 0  240114.641085 588588.939407 0  239388.100256 589437.382238 0  238188.104456 590512.346358 0  236938.100507 591362.349798 0  235813.10453 592537.396388 0  234864.502938 593178.7753880001 0  234463.097651 592862.357267 0  235113.0965 591662.3545979999 0  235713.101522 590412.346099 0  235777.688431 589976.7582779999 0  234943.583145 590706.265132 0  234462.482256 591490.2841159999 0  233801.497784 592112.940187 0  233388.099101 591787.394208 0  234013.093099 590437.393065 0  234776.217248 587148.7548100001 0  235163.093726 586562.3486189999 0  235313.098918 585483.229012 0  235250.59732 584662.298153 0  235588.093896 583337.379493 0  236329.432041 582199.858992 0  237188.096234 581462.3349939999 0  237463.088521 580212.335511 0  238350.592558 579057.652616 0  238591.415797 578574.847681 0  238313.094106 577612.328905 0  239229.696732 577695.769664 0  240195.161018 577513.008613 0  240614.996733 577149.8518770001 0  240663.091715 577412.332622 0  240288.092486 578662.334085 0  239942.357258 579508.095811 0  240438.100019 580212.3334220001 0  241338.095553 580387.375355 0  241238.099828 579137.369157 0  241788.097003 577887.370889 0  241983.554649 577241.9220939999 0  242054.178239 576927.8105029999 0  242588.100699 575737.366175 0  243149.324833 574898.583978 0  243695.278626 573919.517981 0  244268.494418 573724.8454239999 0  244995.134063 573930.2767810001 0  245417.314363 573391.601898 0  243450.599125 571859.479773 0  245776.797908 572599.8353060001 0  246779.639852 572973.285167 0  248034.741935 573186.082054 0  249413.10651 573162.3205520001 0  250496.922226 573271.1521899999 0  251613.105126 573237.3551319999 0  252421.824577 572846.032906 0  253256.245022 572580.4733130001 0  253739.471933 571960.9547369999 0  254174.511864 572149.8346569999 0  254484.944333 571684.194807 0  254384.108649 570891.346712 0  254344.002752 570218.26407 0  255025.609604 570829.0294979999 0  255715.005913 570489.264586 0  256218.846343 570774.828355 0  256834.349083 570508.5908 0  257390.092515 570014.308325 0  257624.431042 568493.478911 0  259355.811717 569380.021819 0  260033.372814 569617.066669 0  262679.741751 570320.699974 0  263289.115756 569524.817815 0  263463.114338 570512.301061 0  264638.198419 570687.3443539999 0  265058.220065 571334.378467 0  265447.561421 572077.90485 0  265488.125257 573137.3446020001 0  265131.937715 573963.293593 0  265432.389648 575093.068786 0  265638.122314 576338.029955 0  265750.630817 577371.8281319999 0  265738.570663 578561.9098850001 0  265875.630866 579139.630549 0  266213.129247 579862.311842 0  266563.130472 581112.314509 0  266238.135356 582362.310259 0  265938.12863 583612.320897 0  265738.131342 584762.3210189999 0  266875.638633 585365.358768 0  264018.7239399826 593650.4646671159 0  262236.3944351029 595831.1252656333 0  241846.246678 605206.1436625 0  240200.622106 608424.8903290001 0  240943.4862974102 610939.7757535663 0  236550.6094 599787.3577085 0  238528.1212051503 608102.9081793013 0  244413.4891967989 572609.5960859474 0  236382.0474488751 598808.3067022427 0  235369.601910944 600933.5380148316 0  235413.099011 591037.3503485 0  235446.2251831186 590266.6553871984 0  240475.5921005 578037.3333535 0  240413.173949154 577324.4280286073 0  240574.037899 606283.0066440001 0  263857.9179445 593618.2891454998 0  264153.4303974913 593343.916675058 0  242042.1833925 604946.7714812499 0  241650.3099635 605465.51584375 0  244613.6985165 572229.6575395 0  236631.8579695 598822.2989335 0  235140.029068 600860.444221 0  241767.7287175 604874.0596705 0  242140.15174975 604817.0853906251 0  234781.8558075 600573.1668855001 0  242091.167571125 604881.9284359375 0  234519.3558565 600373.162719 0  254604.8337712102 583989.0014118921 0  250699.5846056537 594617.3297041012 0  250540.4796469513 602258.2940568649 0  248483.7490186612 580334.7345534252 0  258549.2190328319 577893.951823392 0  257067.0067473103 590016.5327808241 0  243285.0921999099 596333.923437875 0  248333.1386145258 589098.0389905117 0  256142.8445072741 595883.3911551933 0  260245.1368072523 583315.2785712298 0  253472.3380211276 578932.2908163272 0  246432.3347504817 599884.5019511909 0  261555.9240922556 588041.186709004 0  247293.1100123104 605823.8307887657 0  246458.2798550911 593168.8646574575 0  252840.0183145193 588226.5564648228 0  249828.2874404451 584740.7888937403 0  255409.5660975206 600458.8956828594 0  260819.9733392385 574219.403683011 0  252584.2262054711 605722.6603825617 0  254049.8830611471 592547.4852571967 0  250015.4356193061 598425.2225922942 0  245872.072249477 577604.9761853142 0  262002.1583249522 579753.4663046852 0  257732.6630933878 586227.970805314 0  250242.5556457866 577017.3316409125 0  244921.6453001869 581816.6358421432 0  256520.3890639471 580904.824006648 0  240779.0970645865 599524.6679555867 0  257100.1829219198 574459.5922545703 0  239912.2630002034 595231.1172704464 0  244703.0875078634 590068.6945953515 0  242549.5490268674 592874.3693043783 0  251586.0465921376 581796.2215047925 0  246643.189997516 596527.447801719 0  251049.7658069622 591057.6752245198 0  253014.5731561695 596998.6601086652 0  238680.2197353724 584542.2309791476 0  259715.365803504 591937.1938619445 0  254097.157218761 575731.4494927844 0  246806.6408589328 586139.0877599345 0  246136.1179750556 602959.471719323 0  253520.7033332401 602835.180253843 0  244125.4295793909 607538.9817227355 0  252546.8895354472 599881.3279113505 0  258289.0983523553 600397.640191779 0  247518.7952199645 583037.3718217331 0  263140.3959879661 582529.2228421422 0  262894.8586894067 585442.3590432997 0  256968.6320599076 593040.7691844478 0  243573.0187527719 600218.2795730785 0  258888.5766127351 595139.7745218446 0  262588.7569809347 576734.8569237856 0  259318.4257992262 580601.2540325444 0  249963.3812725965 607065.7205847671 0  257494.5307999607 583482.5893534871 0  258906.4757205145 572278.8089438241 0  237751.446593475 587300.5805003279 0  255142.4708720699 604956.7580261135 0  258485.4978753244 597756.9250383095 0  255516.7820591553 587791.39641967 0  239758.4692108706 601926.8203218657 0  255873.0092222999 577739.5085867504
[...]
<PointData  Scalars="f_32-1"> 
<DataArray  type="Float64"  Name="f_32-1"  format="ascii">4.1498492169313010e+01  4.2808117851259276e+01  4.4828476158847870e+01  4.6650364310171511e+01  4.7991177545892334e+01  5.0052065413713969e+01  5.0723673050033163e+01  5.1166002657458115e+01  5.1209218854082792e+01  5.1864394600026039e+01  5.2293172279505811e+01  5.2111353516293271e+01  5.2273034658946301e+01  5.4766538488358051e+01  5.6201823533858288e+01  5.7409789181372830e+01  5.8908118050608167e+01  6.0413477678700012e+01  6.0375321148098820e+01  6.0822341650294575e+01  6.3007298910352006e+01  6.4752041675205746e+01  6.6715492022609752e+01  6.7755837797755504e+01  6.8305837573814998e+01  6.9614111835492935e+01  6.9993352721065094e+01  7.0721878247638116e+01  7.2068629914613936e+01  7.2869304060534134e+01  7.3050202816830947e+01  7.3487055868736462e+01  7.4608743565398484e+01  7.5543238855843327e+01  7.5719999099153299e+01  7.6634631918767639e+01  7.7896400869944458e+01  7.9228744905712915e+01  8.0182572348832124e+01  8.0991351136764351e+01  8.2203341925720608e+01  8.3340289463125160e+01  8.4358331539104370e+01  8.5247743615029393e+01  8.6037157618646987e+01  8.6203275604174863e+01  8.6628781707327590e+01  8.7178122706362188e+01  8.7611855676476736e+01  8.7813483336111332e+01  8.7853585377617549e+01  8.7892617008815535e+01  8.7876482322615402e+01  8.7961860385121142e+01  8.8174342943509615e+01  8.8157937404003292e+01  8.8161207929041936e+01  8.8249662451914688e+01  8.8017733433413369e+01  8.7290130809442687e+01  8.6467300302706249e+01  8.5789885879289415e+01  8.4704338470542368e+01  8.2947040793104264e+01  8.2762528686434777e+01  8.4976768942685339e+01  8.5549646364927355e+01  8.5680964415724247e+01  8.5832731890769836e+01  8.6048628059917377e+01  8.6332461766566809e+01  8.7386143334020559e+01  8.7787876270075913e+01  8.8019191220540492e+01  8.8071421257349897e+01  8.7816293017218925e+01  8.7215946522660801e+01  8.6616151710258990e+01  8.5995085636967985e+01  8.6362651474819828e+01  8.6666793393401420e+01  8.7094550456435201e+01  8.7220444932487325e+01  8.7211437114986623e+01  8.7256991951992518e+01  8.7228573174691007e+01  8.6941812133910645e+01  8.6032236629937159e+01  8.4543580408942645e+01  8.4369083849387906e+01  8.5851710105022036e+01  8.6493495837325597e+01  8.6687939765739003e+01  8.6538601576121863e+01  8.6624402211013873e+01  8.6467817913830331e+01  8.6452588756352114e+01  8.6246573474108047e+01  8.6155484070364324e+01  8.5867229177687278e+01  8.3596845385652344e+01  8.1199681344680798e+01  7.8128348352089276e+01  7.5199590165852371e+01  7.2395937806812000e+01  7.0027243565197949e+01  6.8158275861035619e+01  6.6506472284537338e+01  6.4759766931731875e+01  6.3207687107707471e+01  6.1259334790014130e+01  6.0568587840810785e+01  6.0995975063800643e+01  6.4008034298852493e+01  6.6359863824934834e+01  6.7310766974109086e+01  6.8288546714376253e+01  6.9999360639558873e+01  7.2310473835219014e+01  7.4963728868955485e+01  7.5716199309967820e+01  7.5724526739873269e+01  7.4590205385980781e+01  7.2359528814872590e+01  7.1945043532276856e+01  7.3963523544088176e+01  7.5330450131435398e+01  7.5799885016559841e+01  7.5804294350832265e+01  7.4343443089248268e+01  6.9700521193795055e+01  6.8974865313965509e+01  6.7901164298350224e+01  6.7315626930114405e+01  6.6405914887378330e+01  6.5276603879324568e+01  6.3911874621402724e+01  6.2591942448392217e+01  6.1424918737879480e+01  6.0933078039327725e+01  6.0637764409413826e+01  6.0540801937694937e+01  6.0242444426862626e+01  6.0152978731488297e+01  6.0163701038820832e+01  6.0579232415002892e+01  6.1210598863612205e+01  6.1298499554218694e+01  6.0069883478163383e+01  5.8736262846260701e+01  5.7524130404754672e+01  5.6781017524005769e+01  5.6459375830970849e+01  5.4963306766448028e+01  5.3622731620334946e+01  5.2414511487079579e+01  5.2031670428011118e+01  5.0862853145429305e+01  4.9393865970701036e+01  4.9428777312236662e+01  4.8957649114888497e+01  4.8143244953351505e+01  4.6182908399530596e+01  4.3912598172191544e+01  4.2481634786754007e+01  4.0877918087768442e+01  3.9551867929021149e+01  3.8284562277447606e+01  3.7552251267408749e+01  3.7088267007648554e+01  3.6077241782540078e+01  3.5483859061902493e+01  3.5415211891690767e+01  3.5311230805431293e+01  3.4786089697796989e+01  3.4287861721677508e+01  3.3196567004711326e+01  3.2333099363092600e+01  3.2533349648146974e+01  3.1368027803955457e+01  3.1295975186055188e+01  3.3106523318363067e+01  3.3267904536081730e+01  3.3264501148713840e+01  3.2972737556868310e+01  3.2592703757319924e+01  3.2239105495106990e+01  3.2277669688270379e+01  3.2774857676550262e+01  3.3537841426854172e+01  3.4318344805343770e+01  3.5048701921635626e+01  3.6000612497926070e+01  3.6502886955648769e+01  3.7151716262422980e+01  3.8516204703483240e+01  4.0287492556104837e+01  4.1222943833508467e+01  4.1030439726723991e+01  4.0981326992007595e+01  5.2244928704832695e+01  6.0581157842543369e+01  8.5300870915368876e+01  8.7719202600257546e+01  8.8147505794790320e+01  8.5317642969231912e+01  8.7998353091012220e+01  4.9273977588559639e+01  8.5118771461879021e+01  8.6650302551881481e+01  7.3496040600902063e+01  7.2709341335211818e+01  6.0304881781806948e+01  6.0171573763076651e+01  8.6931231992610023e+01  5.2245019986661688e+01  5.2128930472936261e+01  8.5016508424553663e+01  8.5563967761511435e+01  4.9272911182724293e+01  8.4228397292802356e+01  8.6650400255965835e+01  8.5706908336794214e+01  8.4864886437125179e+01  8.6593569535563560e+01  8.4941801361938801e+01  8.6592887040510661e+01  4.9039443470793898e+01  6.6697889522644019e+01  7.5863552414082079e+01  5.1336894312478805e+01  3.6277524811704311e+01  5.2590759731135371e+01  7.5263159761446715e+01  6.0957855694590911e+01  6.4486417627039614e+01  4.2084880436496071e+01  4.2545063593054280e+01  7.5315670688257143e+01  4.6757997074180494e+01  8.2221118248623952e+01  6.7505406074515463e+01  5.3942518716383837e+01  5.6610802600452054e+01  6.8707911443865243e+01  3.3766103711924927e+01  7.8215945891412261e+01  6.1624622978237142e+01  7.0389019551610787e+01  5.2172132775530052e+01  3.6736690040368472e+01  4.6531125329212720e+01  4.4971916478209721e+01  5.7533754199351073e+01  4.2756979591152735e+01  8.1431299166514563e+01  3.6687447728661191e+01  7.5979000733396077e+01  6.4160445919453480e+01  7.0195645762594182e+01  5.0767702216788287e+01  7.2614059899684989e+01  6.0088108162139548e+01  6.7695040217777375e+01  6.4972739291786681e+01  5.5794562513552748e+01  3.8571020085678825e+01  5.9648647537722525e+01  7.9840917306885245e+01  7.4660713716182556e+01  8.5698460053619485e+01  7.1025714114778211e+01  6.9600807332833455e+01  5.6336434948519681e+01  3.9559125812657349e+01  4.1874111033314634e+01  5.9420567018188862e+01  7.9295795749521261e+01  6.1162985523580247e+01  3.5201814028345822e+01  3.8802137883062549e+01  8.1374653741587153e+01  4.5087250555792984e+01  3.2375264102316606e+01  6.7935329149200953e+01  7.6058057145977074e+01  6.5435283504040768e+01  4.8426328064648104e+01  8.5294390123087894e+01  3.8102134139113488e+01  5.1051891602480595e+01  6.0037506288953722e+01  6.5281414064826748e+01  5.6477447819614589e+01  4.7020000840030121e+01  4.3897327965563768e+01  5.5900049025807810e+01  4.7906036156146733e+01  4.7836969019675180e+01  4.4740757218083374e+01  4.9245924662963425e+01  8.4743569764188663e+01  7.8722082828383023e+01  5.3053156869461880e+01  8.3330476554657565e+01  7.5962879236339177e+01  7.3513163126258632e+01  8.0750428653817949e+01  6.2748648421061247e+01  5.9226874776504822e+01  6.6030349700354549e+01  7.2437641803043689e+01  5.7938367915736613e+01  7.8338946871827972e+01  5.0143765107263334e+01  6.5648032181166101e+01  3.2681658451723244e+01  4.9112266814666739e+01  6.8990182381522075e+01  7.7709554808027505e+01  6.3265715027876958e+01  7.1101300065531348e+01  6.1860761767930335e+01  7.1895444765967170e+01  3.5672912666653602e+01  5.3016932264693772e+01  5.3475923965033871e+01  7.9969209266489386e+01  6.7161423137713300e+01  3.7475183956131318e+01  7.9531682401100156e+01  6.3585338195405875e+01  8.4432944408370759e+01  3.3502832973456719e+01  8.4986972311813616e+01  8.4912674996979320e+01  5.5392422342669640e+01  5.1085012238318363e+01  8.4982678330891403e+01  8.5970015947462642e+01  8.3131092156211835e+01  8.5264549921113868e+01  7.1636905928351396e+01  3.6211234851557123e+01  8.0965492261581957e+01  7.6050717992133144e+01  5.6257050105265535e+01  5.0661953279133684e+01  4.7458915185293236e+01  8.5713913487405776e+01  8.4905093677728033e+01  5.8601631713801517e+01  8.6024630467392328e+01  8.3906816260391054e+01  8.4412609966288713e+01  8.6114944598443913e+01  5.9867777238892096e+01  4.9157959292136916e+01  7.1376409749149246e+01  3.4258981385792758e+01  4.9237882215048664e+01  3.6532377840749412e+01  6.9370709261987798e+01  8.7494438525955289e+01  6.6850274278657423e+01  7.2895209054267099e+01  8.3598276940103261e+01  6.0143999049299865e+01  3.1191934751434840e+01  7.2176712820248028e+01  3.9551705640579740e+01  5.2492494707505955e+01  8.5037093470757398e+01  8.3064200600971049e+01  6.2214159457233201e+01  8.7498064724860498e+01  4.3822039788584178e+01  8.5575579060212434e+01  6.4085906994103851e+01  3.2630656319957211e+01  3.6380497843240697e+01  3.7525402363073745e+01  7.2650594423857555e+01  8.2020696055996268e+01  8.1352845811544213e+01  6.8847706905491066e+01  8.5442262500588470e+01  6.0219827874919893e+01  4.9157601285681665e+01  4.9145631340098795e+01  3.2558411640195466e+01  8.4980016718769093e+01  8.5161190950215783e+01  8.5233481879356660e+01  7.5781236940819610e+01  8.1759214693352618e+01  8.5287667639262722e+01  8.3725205032354779e+01  6.7103262769233609e+01  8.8098196490958031e+01  8.8047058878063453e+01  6.1293602619519376e+01  3.5086667257516638e+01  6.1164166743166923e+01  8.2245253755355137e+01  5.6126024368313004e+01  6.4792273308291044e+01  8.7686659856659446e+01  6.1918029750791405e+01  7.3555218464982374e+01  4.0999422058763273e+01  5.6515030640614334e+01  5.5739374023632358e+01  5.7131843324103741e+01  8.6032920813006186e+01  5.0499020549307822e+01  5.1371232645182211e+01  4.9542757109088839e+01  5.1240269909309589e+01  4.7549633842207292e+01  3.2924224235380159e+01  3.1497447247216559e+01  5.2432468189805917e+01  5.5112056571198799e+01  7.5478140941899142e+01  7.5404134227827058e+01  8.7905853485684645e+01  6.7074116818974744e+01  6.4804163694760078e+01  6.0741033908786456e+01  6.0351636576914913e+01  6.0445776092778580e+01  6.0648223798200334e+01  6.0333623399696691e+01  6.0365755839858693e+01  6.2350226983405179e+01  6.0510749478385662e+01  6.1189544399237910e+01  6.4193190723164491e+01  6.2537359408673126e+01  5.8748606157051647e+01  6.0276732028430196e+01  4.4934114592772644e+01  4.6618761732671246e+01  4.4749289422148621e+01  4.3193191966232838e+01  4.3690901906289170e+01  4.1721944148179084e+01  4.2965463590233313e+01  4.2272332858015766e+01  3.9040650293249186e+01  3.7884694316312995e+01  3.4167757704808466e+01  3.4674371912867215e+01  3.4598484573575739e+01  3.5505126961814874e+01  3.4983020670935858e+01  3.6255653000837142e+01  3.6232338902217890e+01  3.5450897977498464e+01  3.6835988895510177e+01  3.6443214878519392e+01  3.7297479886268107e+01  3.6722708312317302e+01  3.8035475647146065e+01  4.0317375987664938e+01  3.8942933893650789e+01  4.6490059160871176e+01  4.6474773699998352e+01  4.6698265051931010e+01  4.9793728978923816e+01  6.7619448110148454e+01  6.7068497105988641e+01  6.6223498118307177e+01  6.7651476260444454e+01  7.3872436539045353e+01  7.7360311295773556e+01  7.4806514705088048e+01  7.6949817149961817e+01  5.3975514342628379e+01  4.9849538395780030e+01  4.9917674885107900e+01  5.1781616827199336e+01  3.6703810455939887e+01  3.8371510974837058e+01  3.6651536447261854e+01  3.7199357543993237e+01  3.6786815118056346e+01  3.6085279833793123e+01  5.4649475591374980e+01  5.6175787592422509e+01  5.0222078435331404e+01  5.3670560023655050e+01  5.0738602997309115e+01  7.5666577671304182e+01  7.2845886207205467e+01  6.0108805111244173e+01  6.0083548539978416e+01  6.2425306464751515e+01  5.9625490520742431e+01  6.2095395020737875e+01  6.0683876707777252e+01  6.3341771879941973e+01  6.6210969656724274e+01  6.5191523710133936e+01  3.8475165555284896e+01  4.0146420683405999e+01  4.1974184118211632e+01  4.0590017703705435e+01  4.3223118655682761e+01  4.2505008267659015e+01  4.7134361986237586e+01  3.9680097900533632e+01  4.0050074855633746e+01  4.4886147380426991e+01  4.5300864677160426e+01  7.2575827946223555e+01  7.7329158221633634e+01  7.3902229404835239e+01  7.8214987961739567e+01  8.1160680646307156e+01  7.0482393615391700e+01  6.5241150151330615e+01  6.9233530402647816e+01  6.7077387187868425e+01  5.0789208031711816e+01  5.4728469665516393e+01  5.5976004321001717e+01  5.1329967113048426e+01  7.1909430848533916e+01  6.9042332803686449e+01  6.9316443040707711e+01  6.6602728669137065e+01  3.5111155806558223e+01  3.4316427405584740e+01  6.1388137678660406e+01  6.0299768606847721e+01  5.9046463281538884e+01  7.1162208175260588e+01  6.8808434939186270e+01  7.2265187724688545e+01  6.8999462058106289e+01  5.4223815670564640e+01  5.0285658125785119e+01  5.0492154952101338e+01  5.2255965755287285e+01  5.0915586093001728e+01  5.2657024248331219e+01  3.7546229191321586e+01  3.6365132999072657e+01  3.7340488211307417e+01  3.6377540027606479e+01  3.6920753523261617e+01  3.6735343705412006e+01  4.5766877504152895e+01  4.6894529826636365e+01  4.7602414861103384e+01  4.6862436807726041e+01  4.0727244256857254e+01  4.6234734555110208e+01  4.6293049336498711e+01  4.7336663686752495e+01  4.1603287785037764e+01  4.4251910117364034e+01  5.7003205783947280e+01  5.9033804950317332e+01  5.6733431910755222e+01  5.5648488282659166e+01  4.0607139874418010e+01  4.4344764420246989e+01  3.9744127346930192e+01  4.4863347089717237e+01  3.7690664459149126e+01  3.4893563596667306e+01  3.7450814556825172e+01  3.6160198725431606e+01  3.6447901684069151e+01  3.5592718443845946e+01  3.7144848635205818e+01  6.3156842150292832e+01  6.2874194019218933e+01  6.5461670669860624e+01  6.5847814972957863e+01  7.0632180191303746e+01  4.8969170386268779e+01  4.9413021434923685e+01  7.0769875023701829e+01  6.2532985071103141e+01  5.9159465732605405e+01  5.8413573760471223e+01  6.1890455925540280e+01  6.8902287388721120e+01  6.6932070233265151e+01  6.3759925355076611e+01  6.3489197157148745e+01  5.7530731218368373e+01  5.2667941167830534e+01  3.8537701213088795e+01  3.8836601167010386e+01  3.8019829602797415e+01  5.9215213019598657e+01  6.0561004912882886e+01  7.6249295242274002e+01  7.8936316987053345e+01  7.2798129081242280e+01  7.6773825608604824e+01  7.3268127834897868e+01  7.3156336726311821e+01  6.7608474277143188e+01  6.7298339362924082e+01  5.4783242192868052e+01  3.8435297166207725e+01  5.7350580033794330e+01  5.9089615477711703e+01  3.5341066503211756e+01  3.6016391214744132e+01  3.5194253331605701e+01  4.2383798557282255e+01  4.4948704466717651e+01  5.1781709348238593e+01  4.8298788684045640e+01  4.8620246440537777e+01  5.0616904990195529e+01  5.9733615122466347e+01  6.0011467931573080e+01  6.0646461591052194e+01  6.0741414069006744e+01  6.4452349010389938e+01  6.4175354315103746e+01  5.4716750400608809e+01  5.0281246275273233e+01  4.8404977387212114e+01  5.0828642221594507e+01  4.8539669540203867e+01  4.5698780784090452e+01  4.7036088837284417e+01  5.5522156903713395e+01  5.2070454756330882e+01  7.5811213805235639e+01  5.4018064650618065e+01  5.0780598859374635e+01  6.1819501479810747e+01  6.4746434210543640e+01  6.9084627102325797e+01  6.7034592376655311e+01  3.6987487880645865e+01  3.4245060845861090e+01  3.6961641476406939e+01  5.9976801594308462e+01  3.5870311618109646e+01  6.0753994038459311e+01  4.1675938007828819e+01  3.8344244545605100e+01  6.1536807391233324e+01  4.7913144017904550e+01  6.7618346261277111e+01  3.6443696625748842e+01  3.6916115372741089e+01  3.6322128133114646e+01  3.6451343673367624e+01  3.6272678607162348e+01  6.1331115648949158e+01  4.2771640445769897e+01  4.4872978283153664e+01  4.3873700558391306e+01  7.5459510041176003e+01  5.7830136383847318e+01  5.2353136185376037e+01  5.2491061252315546e+01  5.3668327783603424e+01  3.4973638868618856e+01  6.8750417523441058e+01  6.9374582304748415e+01  3.7220828544547480e+01  3.6956973406109064e+01  4.6145753141649294e+01  4.6390199709150806e+01  4.2717939396434105e+01  5.6403387899298146e+01  5.9759436976084729e+01  6.1192992616618348e+01  5.8887563242729158e+01  6.2046626197387610e+01  3.9372738258097620e+01  3.8098708939091665e+01  3.8641125705719332e+01  3.8326632929063329e+01  6.9232200181086753e+01  3.7938664754678456e+01  3.9631073164750440e+01  4.0554964562502306e+01  4.9183607926601312e+01  4.9466845891629099e+01  4.9895516495846643e+01  4.8106280290765746e+01  3.9018871757009570e+01  3.7600235201961070e+01  3.8360908271258687e+01  4.8839694669072223e+01  7.2879315852666238e+01  7.3534940044467234e+01  7.4631549357856571e+01  6.2401709721730874e+01  6.6539110512882814e+01  5.1977425378604437e+01  4.9450161134994779e+01  4.8707692698689804e+01  4.9962479410621498e+01  6.3831827498479882e+01  6.1003142161276116e+01  6.1693175031179919e+01  3.6166336516175626e+01  3.5957960836729207e+01  3.5853039347929055e+01  5.2498147747071719e+01  5.4308561656479583e+01  5.3706566227444135e+01  5.1723793447455655e+01  6.5915674668404051e+01  3.6022307352641270e+01  3.6253573271637080e+01  3.6206833060994846e+01  6.0547127114050710e+01  6.0312116914974553e+01  6.0372805255276624e+01  4.2773832374159902e+01  4.4005899289164539e+01  4.4711680401104950e+01  3.7573392317169969e+01  3.5261250280458114e+01  3.5566291911705598e+01  6.1467684861399547e+01  6.2916440125235120e+01  6.2089486470220649e+01  6.1273275765287373e+01  6.1287915604048067e+01  6.1685062873879460e+01  6.0933535846510608e+01  4.5119984022622226e+01  3.5651987375860024e+01  4.6653241028077275e+01  6.8185617320975354e+01  5.0814395303160495e+01  5.0280474897969000e+01  3.6310442442349839e+01  3.7307710143184160e+01  3.7372252560432528e+01  3.8593842040874961e+01  3.7898003253101884e+01  3.7039502887034374e+01  5.0323093806848981e+01  4.9059543753812079e+01  4.9462084312558268e+01  6.0963658490031897e+01  6.1208563862456401e+01  3.7800484317607037e+01  3.8674473139204181e+01  4.1048239468525978e+01  4.1688107598153969e+01  4.6252232688117374e+01  3.9950897573389142e+01  3.9830498343935837e+01  3.9064539492051097e+01  4.7532987341760240e+01  7.4895767252414998e+01  5.1154345847670989e+01  5.3241896328668432e+01  5.2651896922594084e+01  6.7452610733903924e+01  6.8135866379746915e+01  6.6781736100375284e+01  5.1308645620147708e+01  5.3404703099352950e+01  5.1409605181181639e+01  4.4946512797006854e+01  5.5143746338964021e+01  5.5037296794611834e+01  3.8110953230431520e+01  3.7818410472764285e+01  6.4203887600542998e+01  6.3836015949753211e+01  6.5002907266091526e+01  3.8375252378135507e+01  3.5946928523588916e+01  </DataArray> 
</PointData> 
</Piece>
</UnstructuredGrid>
</VTKFile>