<?xml version="1.0"?>
<VTKFile type="UnstructuredGrid"  version="0.1"  >
<UnstructuredGrid>
<Piece  NumberOfPoints="784" NumberOfCells="1320">
<Points>
<DataArray  type="Float64"  NumberOfComponents="3"  format="ascii">266913.131276 586512.314988 0  266738.13716 587762.325998 0  266363.132677 589012.328643 0  266175.641078 590169.601714 0  265666.575631 591040.7699119999 0  264875.64001 591687.766419 0  264900.636161 591845.049083 0  266088.14152 592012.3229499999 0  265561.959259 592661.17101 0  264288.136855 593037.368683 0  263865.194033 593999.8486949999 0  263850.641856 593236.729596 0  263625.634872 592756.525286 0  262689.574249 593299.848918 0  262475.636737 594003.0907310001 0  261934.554452 594340.929792 0  261725.631329 594932.094409 0  261729.256443 595728.498809 0  262138.136044 595012.330523 0  262288.141035 596262.333669 0  261488.994028 597511.480605 0  261234.15567 598316.338928 0  260815.635063 599014.863821 0  261400.643658 599389.7367680001 0  261322.963374 600022.185065 0  261119.455248 600931.061306 0  261607.436504 601293.0629359999 0  260807.446929 602089.899812 0  260025.642878 602988.868697 0  259613.135827 603937.3854499999 0  259050.643123 604100.987861 0  258411.880065 603988.6335979999 0  257764.357469 604449.872569 0  257971.239668 605320.429125 0  258041.396867 605740.635381 0  257188.143339 606987.394312 0  256038.141198 608112.3554550001 0  254788.141633 609087.4026939999 0  253588.140656 609812.362881 0  252338.135706 609737.4048949999 0  251088.138116 609787.404055 0  249963.12851 610287.399466 0  248613.130524 610462.365857 0  247363.132198 610687.407659 0  246113.130532 610837.411551 0  245832.347438 610918.209918 0  245016.946433 610958.5639439999 0  244313.129646 610762.372259 0  244400.622144 611378.093316 0  243939.669208 612460.8930899999 0  242960.649733 611984.892792 0  242170.381438 611919.647351 0  241888.122919 611112.375656 0  241393.380757 610467.6456149999 0  240594.157528 611306.369822 0  240525.621947 610804.648112 0  240363.123632 610512.3745050001 0  239113.123247 610262.374278 0  239813.12126 609037.412459 0  240588.122952 607812.368199 0  241013.119545 606625.9534560001 0  241454.373249 605724.888025 0  242238.120107 604687.3993 0  243088.121248 603462.362766 0  242860.319451 603007.3932640001 0  241563.116617 603812.361344 0  241778.400913 604327.642217 0  242059.837234 604824.879102 0  241475.620201 604923.2402390001 0  241462.182234 605449.881372 0  240906.219606 605674.888222 0  240241.856192 606891.125066 0  239891.734044 607841.012479 0  239048.653431 608724.889805 0  238118.054545 608974.895967 0  238888.111029 607337.406468 0  239738.119992 606212.362729 0  240288.12044 605687.4075229999 0  240380.212307 604729.521696 0  239347.309632 604603.204501 0  238888.112036 604387.408787 0  237913.11173 604687.401386 0  236784.172023 604499.882783 0  236883.408793 603717.08334 0  236154.933927 603595.565605 0  235688.103943 602912.369264 0  235763.108033 601662.366516 0  236363.110805 600412.35884 0  236738.107995 599162.356577 0  236525.607944 598482.2412899999 0  236138.109208 599362.357613 0  235725.063048 600325.4466510001 0  235091.948926 601408.5220979999 0  235188.10921 600312.366344 0  234375.602405 600833.9674270001 0  234663.109308 599912.358011 0  234138.105122 600062.365644 0  233955.307245 599029.561063 0  233338.103791 598387.401556 0  233988.09795 597862.356384 0  235138.101489 596637.3947750001 0  235563.1039 595387.392428 0  236513.103639 594212.356312 0  237163.10684 592987.3929869999 0  238313.103031 591862.3515540001 0  239513.107028 590812.3512640001 0  240638.102135 589787.387271 0  241463.109549 588587.378486 0  242294.489816 587443.735215 0  242913.101099 586512.341804 0  243544.066915 585474.859604 0  243040.448415 585184.975583 0  242438.10214 585337.38015 0  241313.102353 586562.339499 0  240538.107104 587787.382449 0  240114.641085 588588.939407 0  239388.100256 589437.382238 0  238188.104456 590512.346358 0  236938.100507 591362.349798 0  235813.10453 592537.396388 0  234864.502938 593178.7753880001 0  234463.097651 592862.357267 0  235113.0965 591662.3545979999 0  235713.101522 590412.346099 0  235777.688431 589976.7582779999 0  234943.583145 590706.265132 0  234462.482256 591490.2841159999 0  233801.497784 592112.940187 0  233388.099101 591787.394208 0  234013.093099 590437.393065 0  234776.217248 587148.7548100001 0  235163.093726 586562.3486189999 0  235313.098918 585483.229012 0  235250.59732 584662.298153 0  235588.093896 583337.379493 0  236329.432041 582199.858992 0  237188.096234 581462.3349939999 0  237463.088521 580212.335511 0  238350.592558 579057.652616 0  238591.415797 578574.847681 0  238313.094106 577612.328905 0  239229.696732 577695.769664 0  240195.161018 577513.008613 0  240614.996733 577149.8518770001 0  240663.091715 577412.332622 0  240288.092486 578662.334085 0  239942.357258 579508.095811 0  240438.100019 580212.3334220001 0  241338.095553 580387.375355 0  241238.099828 579137.369157 0  241788.097003 577887.370889 0  241983.554649 577241.9220939999 0  242054.178239 576927.8105029999 0  242588.100699 575737.366175 0  243149.324833 574898.583978 0  243695.278626 573919.517981 0  244268.494418 573724.8454239999 0  244995.134063 573930.2767810001 0  245417.314363 573391.601898 0  243450.599125 571859.479773 0  245776.797908 572599.8353060001 0  246779.639852 572973.285167 0  248034.741935 573186.082054 0  249413.10651 573162.3205520001 0  250496.922226 573271.1521899999 0  251613.105126 573237.3551319999 0  252421.824577 572846.032906 0  253256.245022 572580.4733130001 0  253739.471933 571960.9547369999 0  254174.511864 572149.8346569999 0  254484.944333 571684.194807 0  254384.108649 570891.346712 0  254344.002752 570218.26407 0  255025.609604 570829.0294979999 0  255715.005913 570489.264586 0  256218.846343 570774.828355 0  256834.349083 570508.5908 0  257390.092515 570014.308325 0  257624.431042 568493.478911 0  259355.811717 569380.021819 0  260033.372814 569617.066669 0  262679.741751 570320.699974 0  263289.115756 569524.817815 0  263463.114338 570512.301061 0  264638.198419 570687.3443539999 0  265058.220065 571334.378467 0  265447.561421 572077.90485 0  265488.125257 573137.3446020001 0  265131.937715 573963.293593 0  265432.389648 575093.068786 0  265638.122314 576338.029955 0  265750.630817 577371.8281319999 0  265738.570663 578561.9098850001 0  265875.630866 579139.630549 0  266213.129247 579862.311842 0  266563.130472 581112.314509 0  266238.135356 582362.310259 0  265938.12863 583612.320897 0  265738.131342 584762.3210189999 0  266875.638633 585365.358768 0  264018.7239399826 593650.4646671159 0  262236.3944351029 595831.1252656333 0  241846.246678 605206.1436625 0  240200.622106 608424.8903290001 0  240943.4862974102 610939.7757535663 0  236550.6094 599787.3577085 0  238528.1212051503 608102.9081793013 0  244413.4891967989 572609.5960859474 0  236382.0474488751 598808.3067022427 0  235369.601910944 600933.5380148316 0  235413.099011 591037.3503485 0  235446.2251831186 590266.6553871984 0  240475.5921005 578037.3333535 0  240413.173949154 577324.4280286073 0  240574.037899 606283.0066440001 0  263857.9179445 593618.2891454998 0  264153.4303974913 593343.916675058 0  242042.1833925 604946.7714812499 0  241650.3099635 605465.51584375 0  244613.6985165 572229.6575395 0  236631.8579695 598822.2989335 0  235140.029068 600860.444221 0  241767.7287175 604874.0596705 0  242140.15174975 604817.0853906251 0  234781.8558075 600573.1668855001 0  242091.167571125 604881.9284359375 0  234519.3558565 600373.162719 0  254604.8337712102 583989.0014118921 0  250699.5846056537 594617.3297041012 0  250540.4796469513 602258.2940568649 0  248483.7490186612 580334.7345534252 0  258549.2190328319 577893.951823392 0  257067.0067473103 590016.5327808241 0  243285.0921999099 596333.923437875 0  248333.1386145258 589098.0389905117 0  256142.8445072741 595883.3911551933 0  260245.1368072523 583315.2785712298 0  253472.3380211276 578932.2908163272 0  246432.3347504817 599884.5019511909 0  261555.9240922556 588041.186709004 0  247293.1100123104 605823.8307887657 0  246458.2798550911 593168.8646574575 0  252840.0183145193 588226.5564648228 0  249828.2874404451 584740.7888937403 0  255409.5660975206 600458.8956828594 0  260819.9733392385 574219.403683011 0  252584.2262054711 605722.6603825617 0  254049.8830611471 592547.4852571967 0  250015.4356193061 598425.2225922942 0  245872.072249477 577604.9761853142 0  262002.1583249522 579753.4663046852 0  257732.6630933878 586227.970805314 0  250242.5556457866 577017.3316409125 0  244921.6453001869 581816.6358421432 0  256520.3890639471 580904.824006648 0  240779.0970645865 599524.6679555867 0  257100.1829219198 574459.5922545703 0  239912.2630002034 595231.1172704464 0  244703.0875078634 590068.6945953515 0  242549.5490268674 592874.3693043783 0  251586.0465921376 581796.2215047925 0  246643.189997516 596527.447801719 0  251049.7658069622 591057.6752245198 0  253014.5731561695 596998.6601086652 0  238680.2197353724 584542.2309791476 0  259715.365803504 591937.1938619445 0  254097.157218761 575731.4494927844 0  246806.6408589328 586139.0877599345 0  246136.1179750556 602959.471719323 0  253520.7033332401 602835.180253843 0  244125.4295793909 607538.9817227355 0  252546.8895354472 599881.3279113505 0  258289.0983523553 600397.640191779 0  247518.7952199645 583037.3718217331 0  263140.3959879661 582529.2228421422 0  262894.8586894067 585442.3590432997 0  256968.6320599076 593040.7691844478 0  243573.0187527719 600218.2795730785 0  258888.5766127351 595139.7745218446 0  262588.7569809347 576734.8569237856 0  259318.4257992262 580601.2540325444 0  249963.3812725965 607065.7205847671 0  257494.5307999607 583482.5893534871 0  258906.4757205145 572278.8089438241 0  237751.446593475 587300.5805003279 0  255142.4708720699 604956.7580261135 0  258485.4978753244 597756.9250383095 0  255516.7820591553 587791.39641967 0  239758.4692108706 601926.8203218657 0  255873.0092222999 577739.5085867504
[...]
<PointData  Scalars="f_32-1"> 
<DataArray  type="Float64"  Name="f_32-1"  format="ascii">4.1525845392534521e+01  4.2834194107350157e+01  4.4853225129476158e+01  4.6672284833070876e+01  4.8012803860930219e+01  5.0074274068081309e+01  5.0745461865761136e+01  5.1190468911069836e+01  5.1232293465660433e+01  5.1878565305201732e+01  5.2299990937048733e+01  5.2122606220019968e+01  5.2290476295511318e+01  5.4790231188693078e+01  5.6226977381662103e+01  5.7439904219119924e+01  5.8941292539371652e+01  6.0450401609379590e+01  6.0415053820304159e+01  6.0858103977428982e+01  6.3037486036716068e+01  6.4781709364678605e+01  6.6744948796726206e+01  6.7785167538265611e+01  6.8333901153498786e+01  6.9639484077607037e+01  7.0017824102380189e+01  7.0742835863607439e+01  7.2085018983535150e+01  7.2884327048474660e+01  7.3065930034541111e+01  7.3505902477118383e+01  7.4632397600239045e+01  7.5568821727298399e+01  7.5745697403175441e+01  7.6660453381362203e+01  7.7920643202895477e+01  7.9250598410364589e+01  8.0202009141487196e+01  8.1010770537706790e+01  8.2222364332313703e+01  8.3358650711886284e+01  8.4377097932562336e+01  8.5267267558964164e+01  8.6057705484758998e+01  8.6224120055618954e+01  8.6650457908185373e+01  8.7200379561262579e+01  8.7633585563425669e+01  8.7834766288367248e+01  8.7874607523724094e+01  8.7913447535756887e+01  8.7897666656564397e+01  8.7982980949124880e+01  8.8194264618396204e+01  8.8177965909149364e+01  8.8181226468993756e+01  8.8269061862904138e+01  8.8038540037303719e+01  8.7313138135582207e+01  8.6490831987341465e+01  8.5813408943715729e+01  8.4727234356180134e+01  8.2969266287868791e+01  8.2786633234041574e+01  8.5003456173246434e+01  8.5577086886937778e+01  8.5708592863119065e+01  8.5860086636635899e+01  8.6076057620263072e+01  8.6359772358670114e+01  8.7412105600864706e+01  8.7812030340278966e+01  8.8041326445973624e+01  8.8092961868814896e+01  8.7840234920000199e+01  8.7242193366343258e+01  8.6643318772404200e+01  8.6021329330458087e+01  8.6385585781938630e+01  8.6688596150972174e+01  8.7116295679805759e+01  8.7242896310670446e+01  8.7233482017858975e+01  8.7278832096640201e+01  8.7250047822880148e+01  8.6962636911935761e+01  8.6052577527600590e+01  8.4565288557622665e+01  8.4389874051441055e+01  8.5870140792093423e+01  8.6511531321516372e+01  8.6706167549595122e+01  8.6556392556076588e+01  8.6641761360793510e+01  8.6484918682514248e+01  8.6469193287487400e+01  8.6262471468808897e+01  8.6170775401237918e+01  8.5882811591637022e+01  8.3615082804140485e+01  8.1219826230274890e+01  7.8155219543787979e+01  7.5233151674178231e+01  7.2436697783382584e+01  7.0067606334274302e+01  6.8192323427717668e+01  6.6532036770814742e+01  6.4774372844947095e+01  6.3213627355620766e+01  6.1258882576791116e+01  6.0562558346891464e+01  6.0987671769879917e+01  6.4014365154867733e+01  6.6379988650436943e+01  6.7335845943956627e+01  6.8317921576608853e+01  7.0031613666798748e+01  7.2337163657033940e+01  7.4970209747772969e+01  7.5714527504748489e+01  7.5722769092058613e+01  7.4600226666674160e+01  7.2385667188790023e+01  7.1971448518545671e+01  7.3976873485542583e+01  7.5333786871921092e+01  7.5799483894505684e+01  7.5803852984207481e+01  7.4354450137796789e+01  6.9725833307377272e+01  6.8999135181276628e+01  6.7923334918687374e+01  6.7336195826210414e+01  6.6426142934741776e+01  6.5298633429418302e+01  6.3935442514756488e+01  6.2616215030620381e+01  6.1452242145471757e+01  6.0962773143979575e+01  6.0668227642913358e+01  6.0573430691361018e+01  6.0280270876574711e+01  6.0192089668459310e+01  6.0202658995824088e+01  6.0613445983843846e+01  6.1240560856989646e+01  6.1327005571542067e+01  6.0094579003911747e+01  5.8753492701714272e+01  5.7540925166440616e+01  5.6797148353581086e+01  5.6475983164275995e+01  5.4981551368418522e+01  5.3644633847504636e+01  5.2440184566390435e+01  5.2057449891737498e+01  5.0889909796193280e+01  4.9420089411941277e+01  4.9446956009854077e+01  4.8983861892706955e+01  4.8170248696665233e+01  4.6200505479682576e+01  4.3918623644815661e+01  4.2483045201988553e+01  4.0878625930530539e+01  3.9554516989504847e+01  3.8289642300477112e+01  3.7561414736295198e+01  3.7096420972554888e+01  3.6091088235801102e+01  3.5502348479106018e+01  3.5433851632282632e+01  3.5331026277929737e+01  3.4807148838373621e+01  3.4309827747890012e+01  3.3218408839203875e+01  3.2356885518146150e+01  3.2531652236774868e+01  3.1391175928864623e+01  3.1313552851343470e+01  3.3117822147414458e+01  3.3283229002568490e+01  3.3272872428550109e+01  3.2985191083677293e+01  3.2613039772596572e+01  3.2264680496362551e+01  3.2300104689573395e+01  3.2793105373655393e+01  3.3552918991737627e+01  3.4330477390431788e+01  3.5053288689861510e+01  3.5998529837929603e+01  3.6506600562201413e+01  3.7164443335703879e+01  3.8531842847888498e+01  4.0290468369110840e+01  4.1230748377593365e+01  4.1056872316646235e+01  4.1009799444857258e+01  5.2252815827225817e+01  6.0618476220879892e+01  8.5324139828663832e+01  8.7741270291710052e+01  8.8167585887153706e+01  8.5338413175687876e+01  8.8020670801280474e+01  4.9295380417517762e+01  8.5138226374630349e+01  8.6668447298642548e+01  7.3514907541681453e+01  7.2730835501092869e+01  6.0342005865145474e+01  6.0210410798346359e+01  8.6958106021252590e+01  5.2252887059549153e+01  5.2139313658120031e+01  8.5039666852045841e+01  8.5587473562656811e+01  4.9294427284137264e+01  8.4249919362662283e+01  8.6668553646027348e+01  8.5734463403661877e+01  8.4887913729145808e+01  8.6610964440323244e+01  8.4964901104065618e+01  8.6610269580648307e+01  4.9013273994381777e+01  6.6681051123292889e+01  7.5871899622132219e+01  5.1296194978826740e+01  3.6242358997835112e+01  5.2502323437026426e+01  7.5287794242903516e+01  6.0913553442599842e+01  6.4502498848389763e+01  4.2093320488259387e+01  4.2456841446695194e+01  7.5303095860553384e+01  4.6780005575058325e+01  8.2244669221011449e+01  6.7492005469234314e+01  5.3841050609153285e+01  5.6625779231532803e+01  6.8703779667991867e+01  3.3775669625043662e+01  7.8242263812977143e+01  6.1624439023957457e+01  7.0335523318840544e+01  5.2183260959835678e+01  3.6722255829568923e+01  4.6461200102206966e+01  4.4936459766934917e+01  5.7510350720617126e+01  4.2746843692058661e+01  8.1459382749136751e+01  3.6689946574428646e+01  7.6011892266300720e+01  6.4081919702464234e+01  7.0220214777652572e+01  5.0774807484950422e+01  7.2623652436134989e+01  6.0014200317087493e+01  6.7674714419684321e+01  6.4988676714551119e+01  5.5806977070036062e+01  3.8522623932229770e+01  5.9638897760912478e+01  7.9851921113536619e+01  7.4676906082411108e+01  8.5722467644905009e+01  7.1016489098980898e+01  6.9614977834816074e+01  5.6330806241864487e+01  3.9563942250450943e+01  4.1901135822405024e+01  5.9414942981407648e+01  7.9320901926792999e+01  6.1191252403490239e+01  3.5205257771925709e+01  3.8808411797935896e+01  8.1398570600867771e+01  4.5075928009510037e+01  3.2406604486325612e+01  6.7962976102879665e+01  7.6083246784903537e+01  6.5457358977590275e+01  4.8246473134349863e+01  8.5309105890566698e+01  3.8071913762161969e+01  5.1078202433299090e+01  6.0037310823302363e+01  6.5267855287508723e+01  5.6489496390756436e+01  4.7008884023243581e+01  4.3923430696646832e+01  5.5827205764449580e+01  4.7881042277836244e+01  4.7833904492052994e+01  4.4757209795261218e+01  4.9217330440402662e+01  8.4766527987974158e+01  7.8745569492899222e+01  5.3059342816116683e+01  8.3352971395263523e+01  7.5983959317818616e+01  7.3478435024478230e+01  8.0779548745630734e+01  6.2767300323678896e+01  5.9239299575559890e+01  6.6016628984931614e+01  7.2452269007747105e+01  5.7932361251189143e+01  7.8348161238290132e+01  5.0045019616483422e+01  6.5657743783770130e+01  3.2698724693125868e+01  4.9087406635393030e+01  6.8989225689349624e+01  7.7740883743220735e+01  6.3173745323681459e+01  7.1120176107084305e+01  6.1802479536961854e+01  7.1933865432830686e+01  3.5656193523835618e+01  5.2962301791609498e+01  5.3487339166926596e+01  7.9995192657920754e+01  6.7131566764135428e+01  3.7472188726080823e+01  7.9555516719384471e+01  6.3582816412788134e+01  8.4450523039487010e+01  3.3516752864774169e+01  8.5010551345458339e+01  8.4935960995448553e+01  5.5409973768669857e+01  5.1106251028939560e+01  8.5005878239146497e+01  8.5992178887321131e+01  8.3155085802383013e+01  8.5282035227506896e+01  7.1660441843482189e+01  3.6218648292159891e+01  8.0984358184757170e+01  7.6076434493106746e+01  5.6273818088367420e+01  5.0683292367955310e+01  4.7487384435024310e+01  8.5737535393714722e+01  8.4928184353740306e+01  5.8628808751657587e+01  8.6044965572033604e+01  8.3929170257582939e+01  8.4435455331205915e+01  8.6136151818100316e+01  5.9871447646868482e+01  4.9176348164493504e+01  7.1406630269607305e+01  3.4272839876236709e+01  4.9264672875596339e+01  3.6521890294479796e+01  6.9398986547338907e+01  8.7517447448316673e+01  6.6872133691166098e+01  7.2914634831818887e+01  8.3620533227941849e+01  6.0133484536252432e+01  3.1218519110711313e+01  7.2199760164030323e+01  3.9533872827641815e+01  5.2516907309404786e+01  8.5055993677373280e+01  8.3084590690149554e+01  6.2239965389713682e+01  8.7520896498401825e+01  4.3798027658076720e+01  8.5593562935468469e+01  6.4114377028788880e+01  3.2647061483838968e+01  3.6391746124805195e+01  3.7515424120874066e+01  7.2666556992371724e+01  8.2041736889930618e+01  8.1377760613636340e+01  6.8870706404497255e+01  8.5465735059067640e+01  6.0249750983157504e+01  4.9181928593118457e+01  4.9170123069834673e+01  3.2580193864746448e+01  8.5003149809135465e+01  8.5184368110962083e+01  8.5256780359766296e+01  7.5806915571959848e+01  8.1784329450710302e+01  8.5308712445758218e+01  8.3746520167388766e+01  6.7127365401259368e+01  8.8118587354402379e+01  8.8067750862125536e+01  6.1311774550832858e+01  3.5087625414876420e+01  6.1193350033437682e+01  8.2265522394538863e+01  5.6150113223229482e+01  6.4813104818997544e+01  8.7708283738670971e+01  6.1916311158610313e+01  7.3574973231162076e+01  4.1014756220873835e+01  5.6531842400441967e+01  5.5756601339855699e+01  5.7148332461718773e+01  8.6050340246659530e+01  5.0520645451208146e+01  5.1390878512993424e+01  4.9566271536814057e+01  5.1259684630577667e+01  4.7573543260219950e+01  3.2935042027986349e+01  3.1521898379688135e+01  5.2455374382203011e+01  5.5129785597289079e+01  7.5478924096848132e+01  7.5406024813200844e+01  8.7927367729267260e+01  6.7089476323280763e+01  6.4796022820738685e+01  6.0737620335387099e+01  6.0358425861961329e+01  6.0446412463662853e+01  6.0638394765363032e+01  6.0331030299226967e+01  6.0356595986381997e+01  6.2345154808743295e+01  6.0498894428606583e+01  6.1178320370147070e+01  6.4200672180419431e+01  6.2532796023483023e+01  5.8760662137526822e+01  6.0291012040987781e+01  4.4943544099916828e+01  4.6625509759682984e+01  4.4746966063803740e+01  4.3196066079184767e+01  4.3684812414067402e+01  4.1721778934423909e+01  4.2955578195599074e+01  4.2262688721109811e+01  3.9038314113423482e+01  3.7885454917070625e+01  3.4179690811549456e+01  3.4682929475799661e+01  3.4606771427123057e+01  3.5503921623125763e+01  3.4986926753690476e+01  3.6256114521452794e+01  3.6228114072076309e+01  3.5448411887372522e+01  3.6844063158796608e+01  3.6441352124428413e+01  3.7303861159093373e+01  3.6726416089407287e+01  3.8045066539545694e+01  4.0316117433554560e+01  3.8947768269674135e+01  4.6398568523948995e+01  4.6467352400752560e+01  4.6667921851179962e+01  4.9735709982911054e+01  6.7553434595598162e+01  6.7041513706451951e+01  6.6216221662455069e+01  6.7635379582246713e+01  7.3874815827742594e+01  7.7378137804628480e+01  7.4795093591351986e+01  7.6955934264578872e+01  5.3927848682197443e+01  4.9835887946899689e+01  4.9883260787385794e+01  5.1703587725443789e+01  3.6684699611850426e+01  3.8357097481698979e+01  3.6633230011406646e+01  3.7189264198126736e+01  3.6758553457768663e+01  3.6047548935284603e+01  5.4631621313724295e+01  5.6128445736258527e+01  5.0079403592605154e+01  5.3568997532840356e+01  5.0672843196307056e+01  7.5695399998998653e+01  7.2866556948656992e+01  6.0039457329839735e+01  6.0040054322416800e+01  6.2375067049487967e+01  5.9609110907084442e+01  6.2025113295330243e+01  6.0585864466472735e+01  6.3355650342973604e+01  6.6210194469561458e+01  6.5204508088005312e+01  3.8469092865249451e+01  4.0154233443444610e+01  4.1994359820060865e+01  4.0593455362411518e+01  4.3150454321882087e+01  4.2465477632150659e+01  4.7092676716740634e+01  3.9600415828480486e+01  3.9988044268877069e+01  4.4836626342997498e+01  4.5229919840117333e+01  7.2536923669454282e+01  7.7324410851302602e+01  7.3868497481460750e+01  7.8220593105265635e+01  8.1180157858791546e+01  7.0499605512031408e+01  6.5183880197283983e+01  6.9239140581925824e+01  6.7044442642600885e+01  5.0634585194898534e+01  5.4627664909567621e+01  5.5928880603852434e+01  5.1212008151732185e+01  7.1914209992457003e+01  6.9035485962408615e+01  6.9319594739168309e+01  6.6592537898975195e+01  3.5116620193647776e+01  3.4328262300919604e+01  6.1371022143961618e+01  6.0282685633315644e+01  5.9017659671387229e+01  7.1131994571503981e+01  6.8760258506140005e+01  7.2225874538967460e+01  6.8949086315959107e+01  5.4234886795641245e+01  5.0293251465779171e+01  5.0489362291231636e+01  5.2249537704423624e+01  5.0930136583437928e+01  5.2675899367848046e+01  3.7540504451050680e+01  3.6351864363490591e+01  3.7331650560198739e+01  3.6361172369469976e+01  3.6908882306716748e+01  3.6718524239382681e+01  4.5729937190148846e+01  4.6744888024260248e+01  4.7545390603495072e+01  4.6714362357428456e+01  4.0665294131397822e+01  4.6199886961139008e+01  4.6270421101251991e+01  4.7310067867074395e+01  4.1559178230251490e+01  4.4220314632458624e+01  5.6960002359363692e+01  5.9039338093205387e+01  5.6724078653179930e+01  5.5594927946187724e+01  4.0611150483835708e+01  4.4343472013998380e+01  3.9713640077871361e+01  4.4850188740731227e+01  3.7671409805329461e+01  3.4905436048863130e+01  3.7433547451883868e+01  3.6152054174225476e+01  3.6452410779417342e+01  3.5601554943070163e+01  3.7138717431260346e+01  6.3038422280575816e+01  6.2799275005427837e+01  6.5396457455694645e+01  6.5828669332044257e+01  7.0650974523937450e+01  4.8964707083322239e+01  4.9402848734736352e+01  7.0776734256308984e+01  6.2483563649040029e+01  5.9117798400588079e+01  5.8352373184595514e+01  6.1856745676094995e+01  6.8877910912310085e+01  6.6916560588787291e+01  6.3774752340049403e+01  6.3496828406609005e+01  5.7533799027143694e+01  5.2665210964862588e+01  3.8491118867234242e+01  3.8804624971918237e+01  3.7996542192321513e+01  5.9218773561728675e+01  6.0512348603390322e+01  7.6234209513041151e+01  7.8943603708230626e+01  7.2803412519941006e+01  7.6796626237953660e+01  7.3281553140833410e+01  7.3142041021571714e+01  6.7593292665857291e+01  6.7296621242895810e+01  5.4684262685415298e+01  3.8434615877957668e+01  5.7298108621951862e+01  5.9107383774055194e+01  3.5341543097661507e+01  3.6002800069201285e+01  3.5195424082441242e+01  4.2390624248126208e+01  4.4950599393210510e+01  5.1643485786272713e+01  4.8170838047239194e+01  4.8458008602515733e+01  5.0632587345200903e+01  5.9732250115680678e+01  6.0005098620192683e+01  6.0654462971497999e+01  6.0736937626074457e+01  6.4416152881232918e+01  6.4156015679655013e+01  5.4705371831963610e+01  5.0288264613432112e+01  4.8378411112530415e+01  5.0829159189435742e+01  4.8526898824145682e+01  4.5681861355983408e+01  4.7035459586337950e+01  5.5517421259045584e+01  5.2043059970498085e+01  7.5798831949400608e+01  5.3968957149500156e+01  5.0752822988009378e+01  6.1700360157379450e+01  6.4656867804386408e+01  6.9087473956484033e+01  6.7024385045457279e+01  3.6980290506052825e+01  3.4255580217396052e+01  3.6962852320925705e+01  5.9972055686085469e+01  3.5858167523169541e+01  6.0743962479331536e+01  4.1652169947812347e+01  3.8330823446015472e+01  6.1543756505673890e+01  4.7827853127563316e+01  6.7575724905024046e+01  3.6415438355236873e+01  3.6892573854783826e+01  3.6289673210176851e+01  3.6419246972328295e+01  3.6241161503709286e+01  6.1242864839870933e+01  4.2677472263538426e+01  4.4797880926041394e+01  4.3783047172636834e+01  7.5439621779114120e+01  5.7759429619179798e+01  5.2224765848781459e+01  5.2375860177325002e+01  5.3587511176930420e+01  3.4976384683521353e+01  6.8683413279645606e+01  6.9312838594797952e+01  3.7208920176179248e+01  3.6945621611687166e+01  4.6053340552230253e+01  4.6269670433316875e+01  4.2665797853763252e+01  5.6338054068557767e+01  5.9674026381790341e+01  6.1128454956071657e+01  5.8804201018801173e+01  6.1998935212739916e+01  3.9313263064425911e+01  3.8064564306760253e+01  3.8602730128181321e+01  3.8285009423179524e+01  6.9218912365192537e+01  3.7940909869902718e+01  3.9637874975569879e+01  4.0562215394990673e+01  4.9017725578868571e+01  4.9294335006560154e+01  4.9731261765300978e+01  4.7940788403144779e+01  3.8975943599204918e+01  3.7578798148353940e+01  3.8323857726025381e+01  4.8764102891686854e+01  7.2838941562055567e+01  7.3498173672423860e+01  7.4604420452947252e+01  6.2409857504869088e+01  6.6523930192385251e+01  5.1900976829813011e+01  4.9420114424808965e+01  4.8679381539297466e+01  4.9940691329340382e+01  6.3727560880496519e+01  6.0909335068825847e+01  6.1598233473157315e+01  3.6137533294339178e+01  3.5929437704045121e+01  3.5836235873678163e+01  5.2469846834961338e+01  5.4248124858277684e+01  5.3605842352346563e+01  5.1679911123695675e+01  6.5853908111678322e+01  3.6013188499497076e+01  3.6236721343934221e+01  3.6193917332002989e+01  6.0534001242970533e+01  6.0301952213339675e+01  6.0361412206900795e+01  4.2740704696435792e+01  4.3976000526534570e+01  4.4688916281439909e+01  3.7554828135587236e+01  3.5260735583331787e+01  3.5559623655310382e+01  6.1460318792803420e+01  6.2917341116348076e+01  6.2084591311478434e+01  6.1269484878685496e+01  6.1282075173174569e+01  6.1687017833852131e+01  6.0922179358264884e+01  4.5109793521852474e+01  3.5645208269490034e+01  4.6534593700211907e+01  6.8124010009797573e+01  5.0764249750431333e+01  5.0245970487471496e+01  3.6278901103635057e+01  3.7281374701346145e+01  3.7367480436701129e+01  3.8594799725917120e+01  3.7869093014428067e+01  3.7017082409260198e+01  5.0212223544732602e+01  4.8914874022696537e+01  4.9363825436707131e+01  6.0892017763230889e+01  6.1098121044789913e+01  3.7793312165655543e+01  3.8674398459769264e+01  4.0957540668063558e+01  4.1615446666546120e+01  4.6192372509510825e+01  3.9872828665385690e+01  3.9788912762746122e+01  3.9010188238705027e+01  4.7495219572550170e+01  7.4869607192676440e+01  5.1002695766027372e+01  5.3121227145450412e+01  5.2569975460925065e+01  6.7442223142445343e+01  6.8124580304993344e+01  6.6769071789844318e+01  5.1306037858806668e+01  5.3393337716024469e+01  5.1391249740467686e+01  4.4919241964419818e+01  5.5049704382900998e+01  5.5001628853261174e+01  3.8077114488165265e+01  3.7797531114659478e+01  6.4104255584990611e+01  6.3722730095250093e+01  6.4919625502070943e+01  3.8351245483760501e+01  3.5931755848697705e+01  </DataArray> 
</PointData> 
</Piece>
</UnstructuredGrid>
</VTKFile>