<?xml version="1.0"?>
<VTKFile type="UnstructuredGrid"  version="0.1"  >
<UnstructuredGrid>
<Piece  NumberOfPoints="784" NumberOfCells="1320">
<Points>
<DataArray  type="Float64"  NumberOfComponents="3"  format="ascii">266913.131276 586512.314988 0  266738.13716 587762.325998 0  266363.132677 589012.328643 0  266175.641078 590169.601714 0  265666.575631 591040.7699119999 0  264875.64001 591687.766419 0  264900.636161 591845.049083 0  266088.14152 592012.3229499999 0  265561.959259 592661.17101 0  264288.136855 593037.368683 0  263865.194033 593999.8486949999 0  263850.641856 593236.729596 0  263625.634872 592756.525286 0  262689.574249 593299.848918 0  262475.636737 594003.0907310001 0  261934.554452 594340.929792 0  261725.631329 594932.094409 0  261729.256443 595728.498809 0  262138.136044 595012.330523 0  262288.141035 596262.333669 0  261488.994028 597511.480605 0  261234.15567 598316.338928 0  260815.635063 599014.863821 0  261400.643658 599389.7367680001 0  261322.963374 600022.185065 0  261119.455248 600931.061306 0  261607.436504 601293.0629359999 0  260807.446929 602089.899812 0  260025.642878 602988.868697 0  259613.135827 603937.3854499999 0  259050.643123 604100.987861 0  258411.880065 603988.6335979999 0  257764.357469 604449.872569 0  257971.239668 605320.429125 0  258041.396867 605740.635381 0  257188.143339 606987.394312 0  256038.141198 608112.3554550001 0  254788.141633 609087.4026939999 0  253588.140656 609812.362881 0  252338.135706 609737.4048949999 0  251088.138116 609787.404055 0  249963.12851 610287.399466 0  248613.130524 610462.365857 0  247363.132198 610687.407659 0  246113.130532 610837.411551 0  245832.347438 610918.209918 0  245016.946433 610958.5639439999 0  244313.129646 610762.372259 0  244400.622144 611378.093316 0  243939.669208 612460.8930899999 0  242960.649733 611984.892792 0  242170.381438 611919.647351 0  241888.122919 611112.375656 0  241393.380757 610467.6456149999 0  240594.157528 611306.369822 0  240525.621947 610804.648112 0  240363.123632 610512.3745050001 0  239113.123247 610262.374278 0  239813.12126 609037.412459 0  240588.122952 607812.368199 0  241013.119545 606625.9534560001 0  241454.373249 605724.888025 0  242238.120107 604687.3993 0  243088.121248 603462.362766 0  242860.319451 603007.3932640001 0  241563.116617 603812.361344 0  241778.400913 604327.642217 0  242059.837234 604824.879102 0  241475.620201 604923.2402390001 0  241462.182234 605449.881372 0  240906.219606 605674.888222 0  240241.856192 606891.125066 0  239891.734044 607841.012479 0  239048.653431 608724.889805 0  238118.054545 608974.895967 0  238888.111029 607337.406468 0  239738.119992 606212.362729 0  240288.12044 605687.4075229999 0  240380.212307 604729.521696 0  239347.309632 604603.204501 0  238888.112036 604387.408787 0  237913.11173 604687.401386 0  236784.172023 604499.882783 0  236883.408793 603717.08334 0  236154.933927 603595.565605 0  235688.103943 602912.369264 0  235763.108033 601662.366516 0  236363.110805 600412.35884 0  236738.107995 599162.356577 0  236525.607944 598482.2412899999 0  236138.109208 599362.357613 0  235725.063048 600325.4466510001 0  235091.948926 601408.5220979999 0  235188.10921 600312.366344 0  234375.602405 600833.9674270001 0  234663.109308 599912.358011 0  234138.105122 600062.365644 0  233955.307245 599029.561063 0  233338.103791 598387.401556 0  233988.09795 597862.356384 0  235138.101489 596637.3947750001 0  235563.1039 595387.392428 0  236513.103639 594212.356312 0  237163.10684 592987.3929869999 0  238313.103031 591862.3515540001 0  239513.107028 590812.3512640001 0  240638.102135 589787.387271 0  241463.109549 588587.378486 0  242294.489816 587443.735215 0  242913.101099 586512.341804 0  243544.066915 585474.859604 0  243040.448415 585184.975583 0  242438.10214 585337.38015 0  241313.102353 586562.339499 0  240538.107104 587787.382449 0  240114.641085 588588.939407 0  239388.100256 589437.382238 0  238188.104456 590512.346358 0  236938.100507 591362.349798 0  235813.10453 592537.396388 0  234864.502938 593178.7753880001 0  234463.097651 592862.357267 0  235113.0965 591662.3545979999 0  235713.101522 590412.346099 0  235777.688431 589976.7582779999 0  234943.583145 590706.265132 0  234462.482256 591490.2841159999 0  233801.497784 592112.940187 0  233388.099101 591787.394208 0  234013.093099 590437.393065 0  234776.217248 587148.7548100001 0  235163.093726 586562.3486189999 0  235313.098918 585483.229012 0  235250.59732 584662.298153 0  235588.093896 583337.379493 0  236329.432041 582199.858992 0  237188.096234 581462.3349939999 0  237463.088521 580212.335511 0  238350.592558 579057.652616 0  238591.415797 578574.847681 0  238313.094106 577612.328905 0  239229.696732 577695.769664 0  240195.161018 577513.008613 0  240614.996733 577149.8518770001 0  240663.091715 577412.332622 0  240288.092486 578662.334085 0  239942.357258 579508.095811 0  240438.100019 580212.3334220001 0  241338.095553 580387.375355 0  241238.099828 579137.369157 0  241788.097003 577887.370889 0  241983.554649 577241.9220939999 0  242054.178239 576927.8105029999 0  242588.100699 575737.366175 0  243149.324833 574898.583978 0  243695.278626 573919.517981 0  244268.494418 573724.8454239999 0  244995.134063 573930.2767810001 0  245417.314363 573391.601898 0  243450.599125 571859.479773 0  245776.797908 572599.8353060001 0  246779.639852 572973.285167 0  248034.741935 573186.082054 0  249413.10651 573162.3205520001 0  250496.922226 573271.1521899999 0  251613.105126 573237.3551319999 0  252421.824577 572846.032906 0  253256.245022 572580.4733130001 0  253739.471933 571960.9547369999 0  254174.511864 572149.8346569999 0  254484.944333 571684.194807 0  254384.108649 570891.346712 0  254344.002752 570218.26407 0  255025.609604 570829.0294979999 0  255715.005913 570489.264586 0  256218.846343 570774.828355 0  256834.349083 570508.5908 0  257390.092515 570014.308325 0  257624.431042 568493.478911 0  259355.811717 569380.021819 0  260033.372814 569617.066669 0  262679.741751 570320.699974 0  263289.115756 569524.817815 0  263463.114338 570512.301061 0  264638.198419 570687.3443539999 0  265058.220065 571334.378467 0  265447.561421 572077.90485 0  265488.125257 573137.3446020001 0  265131.937715 573963.293593 0  265432.389648 575093.068786 0  265638.122314 576338.029955 0  265750.630817 577371.8281319999 0  265738.570663 578561.9098850001 0  265875.630866 579139.630549 0  266213.129247 579862.311842 0  266563.130472 581112.314509 0  266238.135356 582362.310259 0  265938.12863 583612.320897 0  265738.131342 584762.3210189999 0  266875.638633 585365.358768 0  264018.7239399826 593650.4646671159 0  262236.3944351029 595831.1252656333 0  241846.246678 605206.1436625 0  240200.622106 608424.8903290001 0  240943.4862974102 610939.7757535663 0  236550.6094 599787.3577085 0  238528.1212051503 608102.9081793013 0  244413.4891967989 572609.5960859474 0  236382.0474488751 598808.3067022427 0  235369.601910944 600933.5380148316 0  235413.099011 591037.3503485 0  235446.2251831186 590266.6553871984 0  240475.5921005 578037.3333535 0  240413.173949154 577324.4280286073 0  240574.037899 606283.0066440001 0  263857.9179445 593618.2891454998 0  264153.4303974913 593343.916675058 0  242042.1833925 604946.7714812499 0  241650.3099635 605465.51584375 0  244613.6985165 572229.6575395 0  236631.8579695 598822.2989335 0  235140.029068 600860.444221 0  241767.7287175 604874.0596705 0  242140.15174975 604817.0853906251 0  234781.8558075 600573.1668855001 0  242091.167571125 604881.9284359375 0  234519.3558565 600373.162719 0  254604.8337712102 583989.0014118921 0  250699.5846056537 594617.3297041012 0  250540.4796469513 602258.2940568649 0  248483.7490186612 580334.7345534252 0  258549.2190328319 577893.951823392 0  257067.0067473103 590016.5327808241 0  243285.0921999099 596333.923437875 0  248333.1386145258 589098.0389905117 0  256142.8445072741 595883.3911551933 0  260245.1368072523 583315.2785712298 0  253472.3380211276 578932.2908163272 0  246432.3347504817 599884.5019511909 0  261555.9240922556 588041.186709004 0  247293.1100123104 605823.8307887657 0  246458.2798550911 593168.8646574575 0  252840.0183145193 588226.5564648228 0  249828.2874404451 584740.7888937403 0  255409.5660975206 600458.8956828594 0  260819.9733392385 574219.403683011 0  252584.2262054711 605722.6603825617 0  254049.8830611471 592547.4852571967 0  250015.4356193061 598425.2225922942 0  245872.072249477 577604.9761853142 0  262002.1583249522 579753.4663046852 0  257732.6630933878 586227.970805314 0  250242.5556457866 577017.3316409125 0  244921.6453001869 581816.6358421432 0  256520.3890639471 580904.824006648 0  240779.0970645865 599524.6679555867 0  257100.1829219198 574459.5922545703 0  239912.2630002034 595231.1172704464 0  244703.0875078634 590068.6945953515 0  242549.5490268674 592874.3693043783 0  251586.0465921376 581796.2215047925 0  246643.189997516 596527.447801719 0  251049.7658069622 591057.6752245198 0  253014.5731561695 596998.6601086652 0  238680.2197353724 584542.2309791476 0  259715.365803504 591937.1938619445 0  254097.157218761 575731.4494927844 0  246806.6408589328 586139.0877599345 0  246136.1179750556 602959.471719323 0  253520.7033332401 602835.180253843 0  244125.4295793909 607538.9817227355 0  252546.8895354472 599881.3279113505 0  258289.0983523553 600397.640191779 0  247518.7952199645 583037.3718217331 0  263140.3959879661 582529.2228421422 0  262894.8586894067 585442.3590432997 0  256968.6320599076 593040.7691844478 0  243573.0187527719 600218.2795730785 0  258888.5766127351 595139.7745218446 0  262588.7569809347 576734.8569237856 0  259318.4257992262 580601.2540325444 0  249963.3812725965 607065.7205847671 0  257494.5307999607 583482.5893534871 0  258906.4757205145 572278.8089438241 0  237751.446593475 587300.5805003279 0  255142.4708720699 604956.7580261135 0  258485.4978753244 597756.9250383095 0  255516.7820591553 587791.39641967 0  239758.4692108706 601926.8203218657 0  255873.0092222999 577739.5085867504
[...]
<PointData  Scalars="f_32-1"> 
<DataArray  type="Float64"  Name="f_32-1"  format="ascii">4.0887103772678280e+01  4.2236057863150364e+01  4.4332308988271066e+01  4.6285104874082066e+01  4.7706425677635764e+01  4.9694146994226443e+01  5.0347293239572721e+01  5.0514114760353479e+01  5.0714889136081247e+01  5.1940229075790725e+01  5.2812541476526846e+01  5.2360289760055636e+01  5.2146190181391717e+01  5.4346064423751486e+01  5.5620033483236696e+01  5.6763616676241256e+01  5.8120858787803968e+01  5.9390603862711380e+01  5.9013125909382232e+01  5.9757528616874659e+01  6.2293864593928660e+01  6.4056474611545298e+01  6.5897561604167350e+01  6.6814317807251555e+01  6.7389806555947274e+01  6.8882763340594920e+01  6.9284100815308236e+01  7.0178483242273501e+01  7.1727536989391012e+01  7.2588477791410881e+01  7.2750985087757869e+01  7.3077846171348483e+01  7.3983985914010390e+01  7.4799659968836281e+01  7.4961829596319490e+01  7.5912040298491348e+01  7.7233142978903260e+01  7.8649854426436278e+01  7.9738675304425328e+01  8.0535927161943363e+01  8.1737730630626544e+01  8.2875197739223168e+01  8.3876947134297708e+01  8.4738864693780542e+01  8.5500241985385401e+01  8.5653152647649506e+01  8.6026444249540106e+01  8.6518093544829753e+01  8.6955673974927976e+01  8.7199435271387131e+01  8.7284276075897253e+01  8.7358825541745489e+01  8.7304424776016475e+01  8.7361820741666634e+01  8.7659014383848287e+01  8.7628892290642142e+01  8.7623488405839993e+01  8.7756984927919987e+01  8.7410926522287781e+01  8.6613934088397997e+01  8.5797001101440486e+01  8.5092294402237115e+01  8.4033485524797271e+01  8.2343059950483124e+01  8.2072878385123147e+01  8.4143341563115271e+01  8.4691623862855124e+01  8.4809467632396874e+01  8.4998638992156216e+01  8.5251085474626862e+01  8.5556217708536892e+01  8.6602590908885887e+01  8.7062051542894196e+01  8.7435666347873209e+01  8.7539226816256161e+01  8.7107254336547001e+01  8.6428876735741710e+01  8.5843864363016792e+01  8.5232296332627598e+01  8.5666296234725593e+01  8.5998411219933175e+01  8.6433847081661867e+01  8.6556083762015788e+01  8.6553949960913897e+01  8.6624655232778565e+01  8.6608961193143173e+01  8.6304829754004189e+01  8.5421915603000500e+01  8.3995276021196716e+01  8.3854999263697025e+01  8.5330371259595395e+01  8.6022067836664917e+01  8.6240432076082655e+01  8.6099205265820373e+01  8.6252967649765566e+01  8.6084444382724257e+01  8.6110224372597131e+01  8.5927415911485213e+01  8.5858667025479448e+01  8.5542621298112365e+01  8.3245638772564291e+01  8.0775430071214089e+01  7.7480230800750732e+01  7.4317428950117701e+01  7.1240443423863866e+01  6.8963873830536443e+01  6.7352451472032257e+01  6.5946317289865306e+01  6.4368514547034891e+01  6.2973166864757815e+01  6.1318049532341981e+01  6.0959756488397232e+01  6.1534804486030900e+01  6.4100669098481887e+01  6.5937821147041547e+01  6.6728303201006909e+01  6.7613893597241358e+01  6.9237473700926827e+01  7.1677696243502581e+01  7.5170962868932264e+01  7.6447375821066913e+01  7.6464626798226860e+01  7.4627705746673612e+01  7.1749437763800728e+01  7.1320075763196442e+01  7.3800841290812926e+01  7.5665593062633320e+01  7.6415156458217822e+01  7.6434356064524508e+01  7.4306122648466797e+01  6.9238348532209116e+01  6.8526230146436603e+01  6.7533899396967030e+01  6.7010958054372963e+01  6.6079408022644131e+01  6.4840341605934924e+01  6.3447559416730542e+01  6.2165476431698480e+01  6.0906209349787254e+01  6.0340910632447496e+01  6.0030600374447133e+01  5.9798954127664317e+01  5.9190681480995146e+01  5.9016933867745053e+01  5.9037750572760231e+01  5.9715319083099942e+01  6.0498017493183283e+01  6.0655284399227014e+01  5.9670225202395919e+01  5.8545140630545347e+01  5.7360627914122119e+01  5.6643577232597814e+01  5.6331075633655701e+01  5.4781464686967873e+01  5.3303138610642158e+01  5.1845049108455427e+01  5.1408714948281428e+01  5.0280797982721495e+01  4.8815874192832254e+01  4.9270001509553119e+01  4.8341456951875955e+01  4.7416442504241708e+01  4.5619611727612778e+01  4.3516907587592776e+01  4.2176584441340822e+01  4.0671494867938378e+01  3.9390696876796305e+01  3.8097748472012789e+01  3.7332912900344866e+01  3.6883996388467295e+01  3.5815223521036607e+01  3.5095635252211189e+01  3.4978480750308989e+01  3.4854159928600147e+01  3.4182307241137480e+01  3.3715821019171109e+01  3.2631827780318218e+01  3.1448808236972223e+01  3.3638149293290013e+01  3.0718894945451904e+01  3.1012543134608990e+01  3.2807595154055292e+01  3.2600587994016017e+01  3.3480140992492863e+01  3.2544745033664427e+01  3.1802236885898477e+01  3.1452947265193298e+01  3.1745072154920635e+01  3.2358514891586601e+01  3.3107510160296322e+01  3.3887459134461508e+01  3.4800201942482978e+01  3.5994728427634094e+01  3.6312122685309674e+01  3.6586221239107040e+01  3.7929672738940916e+01  4.0238367267275763e+01  4.1107940529292783e+01  4.0330266564677949e+01  4.0263164256563925e+01  5.2696880490360911e+01  5.9433373561387661e+01  8.4599560877171271e+01  8.7055733463862637e+01  8.7616460748315689e+01  8.4735934844367421e+01  8.7398944194555440e+01  4.8963798146796250e+01  8.4605349879125711e+01  8.6198351200958854e+01  7.3132682129722468e+01  7.2259356662109653e+01  5.9295108051707473e+01  5.9053120198403462e+01  8.6153041502074160e+01  5.2697479758753133e+01  5.2424722324497885e+01  8.4326715526736592e+01  8.4862268549760429e+01  4.8962485569486397e+01  8.3691767217185514e+01  8.6198148158322354e+01  8.4844018389153561e+01  8.4183815679280727e+01  8.6208879469090775e+01  8.4256322442452344e+01  8.6208728396065496e+01  4.9542246290106561e+01  6.7110881927450890e+01  7.5525121792955247e+01  5.2223672842607463e+01  3.7395788600052128e+01  5.4604385048899047e+01  7.4607630211563290e+01  6.1625096579103975e+01  6.4055487043251986e+01  4.1949423259743980e+01  4.4423717624234321e+01  7.6028202455481747e+01  4.6243250641938836e+01  8.1468963099937127e+01  6.7809324700479863e+01  5.6031114684260537e+01  5.6585980716758648e+01  6.9756010072856384e+01  3.3675081381909834e+01  7.7429180375781726e+01  6.1657331842209075e+01  7.1841969341183187e+01  5.2299734617168014e+01  3.7327166559501073e+01  4.8151864719177048e+01  4.5511331960773340e+01  5.7661903211793756e+01  4.3193375692140116e+01  8.0607298356081031e+01  3.6631565799352259e+01  7.5009130922160949e+01  6.5958872681671110e+01  6.9433177019162656e+01  5.0404505891533255e+01  7.2280185432960266e+01  6.1774269117391952e+01  6.8353079951653285e+01  6.4712388103256629e+01  5.5624697360748925e+01  3.9140076950771466e+01  5.9620989902659950e+01  7.9476724496904566e+01  7.4188479196378594e+01  8.4996930704143807e+01  7.1565331963159778e+01  6.9280692999654519e+01  5.6009391769236714e+01  3.9525344657322783e+01  4.1199883636087563e+01  5.9742227680064111e+01  7.8548212474577127e+01  6.0489614824204111e+01  3.5041811534738045e+01  3.9558892121880447e+01  8.0670474857811428e+01  4.5293406391035667e+01  3.1518791481662852e+01  6.7293353307005276e+01  7.5332703409910920e+01  6.4866135978543653e+01  5.2060224240451618e+01  8.5149336431159512e+01  3.9437571888090361e+01  5.0466207692670551e+01  6.0186465008188414e+01  6.5536168473400096e+01  5.6367297829818639e+01  4.7100687406885186e+01  4.3326211268389969e+01  5.7551109266333292e+01  4.8237892887951340e+01  4.7823257272754795e+01  4.4274636753210956e+01  4.9874314678677322e+01  8.4044235728201343e+01  7.7960988066695421e+01  5.2839280705674213e+01  8.2642502812280782e+01  7.5339115516172953e+01  7.5240871483224140e+01  7.9966125792648427e+01  6.2385069962678962e+01  5.8766647441645162e+01  6.7267931597477542e+01  7.2030273342986021e+01  5.8006978846725957e+01  7.8048530667425098e+01  5.2213755691666613e+01  6.5323035752745952e+01  3.2241999788701598e+01  5.0428951525927509e+01  6.8984928005867388e+01  7.6789433795238125e+01  6.5494163704460135e+01  7.0445313879326577e+01  6.2721332092340390e+01  7.0823107122128363e+01  3.6162998508325721e+01  5.4490995337920836e+01  5.3041754444460892e+01  7.9298265988451419e+01  6.8188195292177767e+01  3.7645969573516545e+01  7.8817289920135792e+01  6.3576677669126944e+01  8.4046333669273693e+01  3.3224353129669502e+01  8.4266402063562552e+01  8.4210197844219053e+01  5.5187920483854455e+01  5.0714628695930799e+01  8.4289249416477006e+01  8.5324891602220077e+01  8.2465254970111275e+01  8.4844418256295995e+01  7.1258683480090838e+01  3.6011975460993881e+01  8.0392574469300669e+01  7.5305604570358156e+01  5.6063047395561647e+01  5.0303142200290331e+01  4.6797684057768940e+01  8.4995276617017922e+01  8.4220170999842068e+01  5.8029953528661906e+01  8.5480205502377274e+01  8.3287315356558182e+01  8.3754489056549517e+01  8.5533777909775367e+01  5.9856597450024374e+01  4.8768249550439165e+01  7.0626008393416598e+01  3.4030691810180684e+01  4.8633786648562086e+01  3.7125765156220844e+01  6.8709682058351262e+01  8.6787656039978444e+01  6.6377372725753204e+01  7.2600135247102585e+01  8.3027412394179237e+01  6.0514648333960238e+01  3.0574655144915038e+01  7.1729109626842899e+01  3.9605410293817378e+01  5.2015873348263050e+01  8.4556702496205176e+01  8.2599880451445870e+01  6.1593817727584906e+01  8.6797513484821977e+01  4.4046610924826517e+01  8.5130567387624765e+01  6.3456234472530262e+01  3.2318925249477275e+01  3.6170870190225152e+01  3.7243584558091328e+01  7.2305246761257294e+01  8.1399155666553071e+01  8.0604336381970526e+01  6.8269388019603738e+01  8.4733487476343726e+01  5.9502218330226356e+01  4.8694620838400908e+01  4.8683682262271702e+01  3.2231588008304414e+01  8.4292081029612334e+01  8.4464164251437012e+01  8.4531658506544687e+01  7.5030259220939968e+01  8.1103357216558749e+01  8.4674863032314605e+01  8.3113933103536937e+01  6.6555289735826889e+01  8.7538495914129868e+01  8.7451993605169761e+01  6.0980595090587286e+01  3.5141511995787390e+01  6.0535421209950265e+01  8.1600106028822438e+01  5.5604736463535268e+01  6.4336135470840134e+01  8.7051190170650187e+01  6.2101422008329820e+01  7.2998566264683589e+01  4.0761597610032240e+01  5.6365976409990942e+01  5.5599045929557271e+01  5.6939055674595110e+01  8.5585519575807197e+01  5.0134565866805488e+01  5.1123441264528047e+01  4.9100925153133524e+01  5.0987992150348326e+01  4.7094359976109835e+01  3.2834702147613875e+01  3.0789723475841370e+01  5.1931486188969124e+01  5.4882161618161035e+01  7.6025276720502603e+01  7.5905034704373108e+01  8.7269875662512689e+01  6.6673221776250685e+01  6.4816376751936147e+01  6.0699782903930178e+01  6.0217234598314292e+01  6.0568420638101465e+01  6.1149739284274887e+01  6.0538745346299763e+01  6.0791882119863708e+01  6.2761183719487327e+01  6.0983878549807109e+01  6.1565985791627554e+01  6.4159813778251390e+01  6.2766534461155864e+01  5.8529304429049240e+01  6.0074070113397184e+01  4.4482261524871539e+01  4.6378472910695073e+01  4.4525869235919721e+01  4.2837847015667265e+01  4.3538517827214299e+01  4.1461895840261924e+01  4.2873195484385867e+01  4.2209602806488505e+01  3.8868797753675089e+01  3.7639931967845477e+01  3.3828056664925448e+01  3.4308470750605984e+01  3.4327420318222806e+01  3.5431584991384184e+01  3.4859784281390674e+01  3.6192796429790938e+01  3.6446333219310930e+01  3.5587766865324795e+01  3.6448167921465682e+01  3.6553374175443551e+01  3.7105804047287869e+01  3.6609367584368314e+01  3.7694380643740267e+01  4.0717144694072779e+01  3.8876630554205065e+01  4.8784623344913740e+01  4.6539832305337370e+01  4.7337228839204911e+01  5.1106384044318716e+01  6.9423810520937678e+01  6.7748929350360370e+01  6.6345280152755322e+01  6.8078946132312950e+01  7.3708241423637347e+01  7.6747355094736619e+01  7.5347189966434584e+01  7.6752387167478773e+01  5.4769553653862090e+01  5.0185603475209270e+01  5.1424261134942761e+01  5.3718544486071828e+01  3.7609913928665129e+01  3.9252494236542837e+01  3.7128265669721522e+01  3.8150966544614299e+01  3.7690963170156834e+01  3.7210875503234760e+01  5.5149224070805666e+01  5.7754669445919369e+01  5.3154279734744485e+01  5.5876071302072994e+01  5.2216585050416711e+01  7.5132052958894519e+01  7.2465735162001380e+01  6.1633094998074441e+01  6.0611368375058035e+01  6.3460047473185142e+01  5.9888165671604241e+01  6.3336894122332339e+01  6.2157414273403376e+01  6.3085079242032705e+01  6.6301268409277185e+01  6.4787154453198468e+01  3.9059323083203118e+01  4.0121386825775495e+01  4.1498928963725128e+01  4.0941751099342014e+01  4.4280810730627117e+01  4.3717147792037508e+01  4.7863493022374200e+01  4.1295090284273691e+01  4.1840355177874955e+01  4.5870696925068003e+01  4.6590134112084463e+01  7.4125642343591821e+01  7.7770406032761130e+01  7.5762360756667704e+01  7.8098752807869062e+01  8.0511249236526098e+01  6.9962019514532201e+01  6.6857888697840792e+01  6.8962341390910836e+01  6.8105219131337122e+01  5.3908972758258244e+01  5.7049016399385415e+01  5.6909321952038574e+01  5.3612570038364986e+01  7.2136321973985602e+01  7.0111999733059349e+01  6.9584234692223262e+01  6.8114514151304576e+01  3.5063971642291961e+01  3.3855573937883939e+01  6.1645548917796980e+01  6.0879057167179646e+01  5.9709011670688241e+01  7.1932494738333347e+01  7.0166297039803894e+01  7.3617366246591814e+01  7.0424598780787733e+01  5.4320542757024995e+01  5.0368515473899336e+01  5.1262082714815605e+01  5.2746407384705357e+01  5.0704416027528936e+01  5.2360747312449192e+01  3.7907004788248649e+01  3.6759417083879420e+01  3.8204300758416544e+01  3.6922352582334902e+01  3.7377313103023653e+01  3.7451168536376670e+01  4.6666429498348030e+01  5.0169062187277660e+01  4.8825894712483375e+01  5.0325449646135958e+01  4.1646412066297792e+01  4.6774946391426397e+01  4.6608698995104248e+01  4.8029866742934175e+01  4.2241553976665713e+01  4.4717598833246335e+01  5.7909139880003586e+01  5.8921113120119593e+01  5.6704348348393737e+01  5.7145575507091166e+01  4.1109940558741933e+01  4.4358957589442014e+01  4.0934169382141889e+01  4.5188159999608168e+01  3.8034944785095902e+01  3.4694268352338796e+01  3.8051203441253286e+01  3.6393444443283073e+01  3.6305414939444155e+01  3.5430455724858355e+01  3.7104276378555362e+01  6.6195904230759893e+01  6.4077905220129452e+01  6.7474392483434812e+01  6.6267265583024553e+01  7.0051097116148341e+01  4.8824899880738478e+01  4.9418531042664739e+01  7.0540906127804632e+01  6.3726535283666784e+01  6.0204977504897478e+01  5.9720103947161356e+01  6.2634798614400403e+01  6.9941487987954432e+01  6.7823914720226256e+01  6.3538213523137095e+01  6.3463120493980298e+01  5.7498104444064332e+01  5.2718661209415224e+01  4.0014700667554550e+01  3.8886252588865972e+01  3.7927658954174312e+01  5.8962440491095172e+01  6.1187224330441488e+01  7.7282852043881007e+01  7.8744947478326964e+01  7.2823939556971666e+01  7.6052790076567774e+01  7.2982395063323068e+01  7.3488371373332825e+01  6.9006290853197427e+01  6.7818867184423155e+01  5.7428795032206907e+01  3.8525984409015571e+01  5.9007075244754006e+01  5.8640573744073293e+01  3.5270805318936098e+01  3.6671153669412860e+01  3.5204048105352243e+01  4.2475003606772688e+01  4.4867185145317364e+01  5.4574527066102007e+01  5.0996764294693449e+01  5.1969881779735445e+01  5.0328888603759680e+01  5.9895922955705160e+01  6.0288831613655077e+01  6.0602804388158326e+01  6.0981116675668275e+01  6.5211233662934518e+01  6.4649045295111137e+01  5.5035527977782110e+01  4.9982143694349098e+01  4.9217967555636065e+01  5.0683719704240652e+01  4.8987781300988537e+01  4.5824550772267870e+01  4.6967895650123907e+01  5.5754247806090035e+01  5.2628673214564515e+01  7.6609553652780988e+01  5.4956879845748695e+01  5.2122720847551960e+01  6.3896529255304479e+01  6.7565167645547476e+01  6.8873776772918234e+01  6.7364100051497701e+01  3.7403304647414814e+01  3.4008728217652269e+01  3.6763036217920636e+01  6.0198613347880773e+01  3.6467802311413813e+01  6.1094599844154608e+01  4.1945692052120066e+01  3.8068519896770241e+01  6.1549176143933373e+01  4.9991799643270582e+01  6.8821084749520210e+01  3.7572172021315893e+01  3.7900509354425303e+01  3.7205966570441916e+01  3.7432110671874703e+01  3.7112311455439809e+01  6.2793449691662509e+01  4.4429939992477031e+01  4.6418985693428816e+01  4.5651494067925555e+01  7.6776939768664533e+01  5.9438550131541994e+01  5.5004400155115988e+01  5.4721776345353554e+01  5.5232271075517978e+01  3.4992203555280796e+01  7.0592176511690454e+01  7.1075360514841535e+01  3.7922007455898431e+01  3.7490979702791051e+01  4.8427595073845588e+01  4.9251517275082882e+01  4.3446574851832949e+01  5.8164260232508866e+01  6.1661507409931765e+01  6.2772472338247880e+01  6.0682206499997712e+01  6.3176364797624771e+01  4.0157433582553381e+01  3.8584702720714091e+01  3.8880566542127916e+01  3.8522907583715146e+01  7.0251183117076991e+01  3.8809617776320081e+01  4.0278991042273518e+01  4.1020546528122004e+01  5.2539942960468771e+01  5.2942256364018426e+01  5.3214728228299613e+01  5.1518546476535001e+01  4.0673737625342881e+01  3.8590378356796045e+01  3.9839143782241024e+01  5.0506652098908631e+01  7.4743834208507636e+01  7.5534088000503473e+01  7.6315049164638381e+01  6.2358969063384933e+01  6.8023339608324363e+01  5.3491004783726211e+01  5.0990057026128859e+01  4.9931132420518701e+01  5.1450844896215294e+01  6.6613825315033779e+01  6.2401584788014425e+01  6.3191063022297797e+01  3.7099599191099216e+01  3.6836855408805405e+01  3.6340587511985802e+01  5.3323870182327262e+01  5.6025809017035677e+01  5.6382914714223169e+01  5.3002059963921354e+01  6.8021451987100349e+01  3.6514392637344741e+01  3.7113989371615538e+01  3.6922078420208017e+01  6.0965000288810231e+01  6.0644681100380097e+01  6.0752267332041299e+01  4.3197842644439575e+01  4.4366792561297380e+01  4.4899137195146210e+01  3.7535009645545102e+01  3.5406180423121882e+01  3.5931995290810939e+01  6.1756818618451192e+01  6.3041052111107931e+01  6.2324251560490616e+01  6.1502455925072745e+01  6.1560562791959470e+01  6.1807675944808764e+01  6.1298686284390570e+01  4.5117740623331720e+01  3.6025316403764386e+01  4.9592360791620393e+01  6.9914393747513856e+01  5.2389782399674758e+01  5.1882424902131000e+01  3.7413623235522856e+01  3.8274372296491954e+01  3.8297601102533072e+01  3.9362476777049586e+01  3.8921235015475617e+01  3.7780135749079847e+01  5.2760669968852667e+01  5.2044011978942983e+01  5.1615513672052600e+01  6.2672383822340642e+01  6.2995426568752698e+01  3.8314266426820325e+01  3.8898456978508811e+01  4.2493206330648810e+01  4.2701064196725909e+01  4.7374992935250368e+01  4.1139220102532235e+01  4.1355682839607830e+01  4.0817519327466407e+01  4.8110305407701347e+01  7.6579792110024954e+01  5.4229981223503344e+01  5.5823333981504014e+01  5.4230372852668303e+01  6.8901014359443494e+01  6.9434298961843993e+01  6.8364686273973277e+01  5.1938181605840782e+01  5.3854360850413364e+01  5.2286499992949601e+01  4.5240129713482524e+01  5.7752427278441637e+01  5.5832958930641034e+01  3.9037969782553823e+01  3.7999762945686356e+01  6.7054614353204755e+01  6.6949790247927808e+01  6.7687653958719409e+01  3.8291698527054493e+01  3.6620955743257298e+01  </DataArray> 
</PointData> 
</Piece>
</UnstructuredGrid>
</VTKFile>