<?xml version="1.0"?>
<VTKFile type="UnstructuredGrid"  version="0.1"  >
<UnstructuredGrid>
<Piece  NumberOfPoints="784" NumberOfCells="1320">
<Points>
<DataArray  type="Float64"  NumberOfComponents="3"  format="ascii">266913.131276 586512.314988 0  266738.13716 587762.325998 0  266363.132677 589012.328643 0  266175.641078 590169.601714 0  265666.575631 591040.7699119999 0  264875.64001 591687.766419 0  264900.636161 591845.049083 0  266088.14152 592012.3229499999 0  265561.959259 592661.17101 0  264288.136855 593037.368683 0  263865.194033 593999.8486949999 0  263850.641856 593236.729596 0  263625.634872 592756.525286 0  262689.574249 593299.848918 0  262475.636737 594003.0907310001 0  261934.554452 594340.929792 0  261725.631329 594932.094409 0  261729.256443 595728.498809 0  262138.136044 595012.330523 0  262288.141035 596262.333669 0  261488.994028 597511.480605 0  261234.15567 598316.338928 0  260815.635063 599014.863821 0  261400.643658 599389.7367680001 0  261322.963374 600022.185065 0  261119.455248 600931.061306 0  261607.436504 601293.0629359999 0  260807.446929 602089.899812 0  260025.642878 602988.868697 0  259613.135827 603937.3854499999 0  259050.643123 604100.987861 0  258411.880065 603988.6335979999 0  257764.357469 604449.872569 0  257971.239668 605320.429125 0  258041.396867 605740.635381 0  257188.143339 606987.394312 0  256038.141198 608112.3554550001 0  254788.141633 609087.4026939999 0  253588.140656 609812.362881 0  252338.135706 609737.4048949999 0  251088.138116 609787.404055 0  249963.12851 610287.399466 0  248613.130524 610462.365857 0  247363.132198 610687.407659 0  246113.130532 610837.411551 0  245832.347438 610918.209918 0  245016.946433 610958.5639439999 0  244313.129646 610762.372259 0  244400.622144 611378.093316 0  243939.669208 612460.8930899999 0  242960.649733 611984.892792 0  242170.381438 611919.647351 0  241888.122919 611112.375656 0  241393.380757 610467.6456149999 0  240594.157528 611306.369822 0  240525.621947 610804.648112 0  240363.123632 610512.3745050001 0  239113.123247 610262.374278 0  239813.12126 609037.412459 0  240588.122952 607812.368199 0  241013.119545 606625.9534560001 0  241454.373249 605724.888025 0  242238.120107 604687.3993 0  243088.121248 603462.362766 0  242860.319451 603007.3932640001 0  241563.116617 603812.361344 0  241778.400913 604327.642217 0  242059.837234 604824.879102 0  241475.620201 604923.2402390001 0  241462.182234 605449.881372 0  240906.219606 605674.888222 0  240241.856192 606891.125066 0  239891.734044 607841.012479 0  239048.653431 608724.889805 0  238118.054545 608974.895967 0  238888.111029 607337.406468 0  239738.119992 606212.362729 0  240288.12044 605687.4075229999 0  240380.212307 604729.521696 0  239347.309632 604603.204501 0  238888.112036 604387.408787 0  237913.11173 604687.401386 0  236784.172023 604499.882783 0  236883.408793 603717.08334 0  236154.933927 603595.565605 0  235688.103943 602912.369264 0  235763.108033 601662.366516 0  236363.110805 600412.35884 0  236738.107995 599162.356577 0  236525.607944 598482.2412899999 0  236138.109208 599362.357613 0  235725.063048 600325.4466510001 0  235091.948926 601408.5220979999 0  235188.10921 600312.366344 0  234375.602405 600833.9674270001 0  234663.109308 599912.358011 0  234138.105122 600062.365644 0  233955.307245 599029.561063 0  233338.103791 598387.401556 0  233988.09795 597862.356384 0  235138.101489 596637.3947750001 0  235563.1039 595387.392428 0  236513.103639 594212.356312 0  237163.10684 592987.3929869999 0  238313.103031 591862.3515540001 0  239513.107028 590812.3512640001 0  240638.102135 589787.387271 0  241463.109549 588587.378486 0  242294.489816 587443.735215 0  242913.101099 586512.341804 0  243544.066915 585474.859604 0  243040.448415 585184.975583 0  242438.10214 585337.38015 0  241313.102353 586562.339499 0  240538.107104 587787.382449 0  240114.641085 588588.939407 0  239388.100256 589437.382238 0  238188.104456 590512.346358 0  236938.100507 591362.349798 0  235813.10453 592537.396388 0  234864.502938 593178.7753880001 0  234463.097651 592862.357267 0  235113.0965 591662.3545979999 0  235713.101522 590412.346099 0  235777.688431 589976.7582779999 0  234943.583145 590706.265132 0  234462.482256 591490.2841159999 0  233801.497784 592112.940187 0  233388.099101 591787.394208 0  234013.093099 590437.393065 0  234776.217248 587148.7548100001 0  235163.093726 586562.3486189999 0  235313.098918 585483.229012 0  235250.59732 584662.298153 0  235588.093896 583337.379493 0  236329.432041 582199.858992 0  237188.096234 581462.3349939999 0  237463.088521 580212.335511 0  238350.592558 579057.652616 0  238591.415797 578574.847681 0  238313.094106 577612.328905 0  239229.696732 577695.769664 0  240195.161018 577513.008613 0  240614.996733 577149.8518770001 0  240663.091715 577412.332622 0  240288.092486 578662.334085 0  239942.357258 579508.095811 0  240438.100019 580212.3334220001 0  241338.095553 580387.375355 0  241238.099828 579137.369157 0  241788.097003 577887.370889 0  241983.554649 577241.9220939999 0  242054.178239 576927.8105029999 0  242588.100699 575737.366175 0  243149.324833 574898.583978 0  243695.278626 573919.517981 0  244268.494418 573724.8454239999 0  244995.134063 573930.2767810001 0  245417.314363 573391.601898 0  243450.599125 571859.479773 0  245776.797908 572599.8353060001 0  246779.639852 572973.285167 0  248034.741935 573186.082054 0  249413.10651 573162.3205520001 0  250496.922226 573271.1521899999 0  251613.105126 573237.3551319999 0  252421.824577 572846.032906 0  253256.245022 572580.4733130001 0  253739.471933 571960.9547369999 0  254174.511864 572149.8346569999 0  254484.944333 571684.194807 0  254384.108649 570891.346712 0  254344.002752 570218.26407 0  255025.609604 570829.0294979999 0  255715.005913 570489.264586 0  256218.846343 570774.828355 0  256834.349083 570508.5908 0  257390.092515 570014.308325 0  257624.431042 568493.478911 0  259355.811717 569380.021819 0  260033.372814 569617.066669 0  262679.741751 570320.699974 0  263289.115756 569524.817815 0  263463.114338 570512.301061 0  264638.198419 570687.3443539999 0  265058.220065 571334.378467 0  265447.561421 572077.90485 0  265488.125257 573137.3446020001 0  265131.937715 573963.293593 0  265432.389648 575093.068786 0  265638.122314 576338.029955 0  265750.630817 577371.8281319999 0  265738.570663 578561.9098850001 0  265875.630866 579139.630549 0  266213.129247 579862.311842 0  266563.130472 581112.314509 0  266238.135356 582362.310259 0  265938.12863 583612.320897 0  265738.131342 584762.3210189999 0  266875.638633 585365.358768 0  264018.7239399826 593650.4646671159 0  262236.3944351029 595831.1252656333 0  241846.246678 605206.1436625 0  240200.622106 608424.8903290001 0  240943.4862974102 610939.7757535663 0  236550.6094 599787.3577085 0  238528.1212051503 608102.9081793013 0  244413.4891967989 572609.5960859474 0  236382.0474488751 598808.3067022427 0  235369.601910944 600933.5380148316 0  235413.099011 591037.3503485 0  235446.2251831186 590266.6553871984 0  240475.5921005 578037.3333535 0  240413.173949154 577324.4280286073 0  240574.037899 606283.0066440001 0  263857.9179445 593618.2891454998 0  264153.4303974913 593343.916675058 0  242042.1833925 604946.7714812499 0  241650.3099635 605465.51584375 0  244613.6985165 572229.6575395 0  236631.8579695 598822.2989335 0  235140.029068 600860.444221 0  241767.7287175 604874.0596705 0  242140.15174975 604817.0853906251 0  234781.8558075 600573.1668855001 0  242091.167571125 604881.9284359375 0  234519.3558565 600373.162719 0  254604.8337712102 583989.0014118921 0  250699.5846056537 594617.3297041012 0  250540.4796469513 602258.2940568649 0  248483.7490186612 580334.7345534252 0  258549.2190328319 577893.951823392 0  257067.0067473103 590016.5327808241 0  243285.0921999099 596333.923437875 0  248333.1386145258 589098.0389905117 0  256142.8445072741 595883.3911551933 0  260245.1368072523 583315.2785712298 0  253472.3380211276 578932.2908163272 0  246432.3347504817 599884.5019511909 0  261555.9240922556 588041.186709004 0  247293.1100123104 605823.8307887657 0  246458.2798550911 593168.8646574575 0  252840.0183145193 588226.5564648228 0  249828.2874404451 584740.7888937403 0  255409.5660975206 600458.8956828594 0  260819.9733392385 574219.403683011 0  252584.2262054711 605722.6603825617 0  254049.8830611471 592547.4852571967 0  250015.4356193061 598425.2225922942 0  245872.072249477 577604.9761853142 0  262002.1583249522 579753.4663046852 0  257732.6630933878 586227.970805314 0  250242.5556457866 577017.3316409125 0  244921.6453001869 581816.6358421432 0  256520.3890639471 580904.824006648 0  240779.0970645865 599524.6679555867 0  257100.1829219198 574459.5922545703 0  239912.2630002034 595231.1172704464 0  244703.0875078634 590068.6945953515 0  242549.5490268674 592874.3693043783 0  251586.0465921376 581796.2215047925 0  246643.189997516 596527.447801719 0  251049.7658069622 591057.6752245198 0  253014.5731561695 596998.6601086652 0  238680.2197353724 584542.2309791476 0  259715.365803504 591937.1938619445 0  254097.157218761 575731.4494927844 0  246806.6408589328 586139.0877599345 0  246136.1179750556 602959.471719323 0  253520.7033332401 602835.180253843 0  244125.4295793909 607538.9817227355 0  252546.8895354472 599881.3279113505 0  258289.0983523553 600397.640191779 0  247518.7952199645 583037.3718217331 0  263140.3959879661 582529.2228421422 0  262894.8586894067 585442.3590432997 0  256968.6320599076 593040.7691844478 0  243573.0187527719 600218.2795730785 0  258888.5766127351 595139.7745218446 0  262588.7569809347 576734.8569237856 0  259318.4257992262 580601.2540325444 0  249963.3812725965 607065.7205847671 0  257494.5307999607 583482.5893534871 0  258906.4757205145 572278.8089438241 0  237751.446593475 587300.5805003279 0  255142.4708720699 604956.7580261135 0  258485.4978753244 597756.9250383095 0  255516.7820591553 587791.39641967 0  239758.4692108706 601926.8203218657 0  255873.0092222999 577739.5085867504
[...]
<PointData  Scalars="f_24704-1"> 
<DataArray  type="Float64"  Name="f_24704-1"  format="ascii">4.1568016085506038e+01  4.2883737562308390e+01  4.4880616226992643e+01  4.6704872578652044e+01  4.8050669620101843e+01  5.0109047200372920e+01  5.0779366676199174e+01  5.1221993669277914e+01  5.1264289840056236e+01  5.1901099374185371e+01  5.2315019573014801e+01  5.2141615577764071e+01  5.2311634427031301e+01  5.4823590142616005e+01  5.6274163710965972e+01  5.7487535479366684e+01  5.8999475366052714e+01  6.0510427661250091e+01  6.0473968356840182e+01  6.0921182960430691e+01  6.3077501293482086e+01  6.4803467690936685e+01  6.6796563340707635e+01  6.7837916731855913e+01  6.8388715222815051e+01  6.9685658031482632e+01  7.0059848582053206e+01  7.0780619397132511e+01  7.2117021243001048e+01  7.2912385463997225e+01  7.3094609286689050e+01  7.3538548080962030e+01  7.4675519346928127e+01  7.5611150860366237e+01  7.5789388749177775e+01  7.6698957587453947e+01  7.7958283868536014e+01  7.9285652674639820e+01  8.0232560341927041e+01  8.1039452621331350e+01  8.2248662381642887e+01  8.3389374166475022e+01  8.4407066655261659e+01  8.5298417095815253e+01  8.6088447654146506e+01  8.6254499135393246e+01  8.6681525521719948e+01  8.7232269075017371e+01  8.7664264074972351e+01  8.7864717403112763e+01  8.7904643016668174e+01  8.7943535775174141e+01  8.7928103357089981e+01  8.8013116812144418e+01  8.8223071259329018e+01  8.8206855460699359e+01  8.8210037137077009e+01  8.8297039176585670e+01  8.8068297687256930e+01  8.7345375005026156e+01  8.6524629467678253e+01  8.5847792066158021e+01  8.4760644779653816e+01  8.3009105746691290e+01  8.2821023164589093e+01  8.5042421126758683e+01  8.5615917424523275e+01  8.5747219511560530e+01  8.5898240805190724e+01  8.6111962385539741e+01  8.6397404685985336e+01  8.7448694593708652e+01  8.7846892216048658e+01  8.8073193305246519e+01  8.8124176834322725e+01  8.7874448869405740e+01  8.7281094073169470e+01  8.6683552937951148e+01  8.6057341199729791e+01  8.6419899265873383e+01  8.6721159098670682e+01  8.7148346525591307e+01  8.7275527344406441e+01  8.7265471344464942e+01  8.7310754927032946e+01  8.7281632768554147e+01  8.6993360880079123e+01  8.6079625611288407e+01  8.4590945935754078e+01  8.4415780295618447e+01  8.5897003073979874e+01  8.6537968631703407e+01  8.6733121540376914e+01  8.6582785880981376e+01  8.6667866769661643e+01  8.6510574092404468e+01  8.6494460887935148e+01  8.6286704434637272e+01  8.6194278281702978e+01  8.5906797603583371e+01  8.3640722189838613e+01  8.1264716857507821e+01  7.8196274360002718e+01  7.5264518384008554e+01  7.2467183572109960e+01  7.0131085609405432e+01  6.8276112609492756e+01  6.6561370251007531e+01  6.4814212598193194e+01  6.3218669867922308e+01  6.1261636516607048e+01  6.0531391799653775e+01  6.0941011965011661e+01  6.4014002206738368e+01  6.6419087438900178e+01  6.7384185354901206e+01  6.8367420320018297e+01  7.0077919152720710e+01  7.2374340949704859e+01  7.4985806142538934e+01  7.5721268884346898e+01  7.5729451399090195e+01  7.4619696841415902e+01  7.2423646581684721e+01  7.2011290354924895e+01  7.4001402778903639e+01  7.5345294578763884e+01  7.5806665601965634e+01  7.5810992656380904e+01  7.4375490664330925e+01  6.9761942120516096e+01  6.9040627247590706e+01  6.7961662835881953e+01  6.7371623899179951e+01  6.6464294177587306e+01  6.5341923939288264e+01  6.3981452773860880e+01  6.2661453837678557e+01  6.1499993457880066e+01  6.1009868022256597e+01  6.0715562199433613e+01  6.0623696168232023e+01  6.0335257713316217e+01  6.0248210533922830e+01  6.0258598867073196e+01  6.0667159845661743e+01  6.1286801429209795e+01  6.1369403244235222e+01  6.0163104972724099e+01  5.8806636714301959e+01  5.7584389180287410e+01  5.6840363490213683e+01  5.6513434926408742e+01  5.5028575047167692e+01  5.3691744532230089e+01  5.2486705005889561e+01  5.2107659553691747e+01  5.0945189836702468e+01  4.9475937131379318e+01  4.9492398709551075e+01  4.9041232789267497e+01  4.8211524791248536e+01  4.6244870134153054e+01  4.3952014427117440e+01  4.2495165508873853e+01  4.0902174805982376e+01  3.9585945614009312e+01  3.8324745562404210e+01  3.7590790326187488e+01  3.7133100499737431e+01  3.6126327037200767e+01  3.5533947935007497e+01  3.5467002334588699e+01  3.5369735522942030e+01  3.4874157243045630e+01  3.4451653798030357e+01  3.4208713321338756e+01  3.7575387795380152e+01  4.3369650170330260e+01  3.7532410476299539e+01  3.4925993816300405e+01  3.3139125108904352e+01  3.3337503366128907e+01  3.3304520509055457e+01  3.3011543258336104e+01  3.2644606181609241e+01  3.2298525675912742e+01  3.2333463569370807e+01  3.2819617544348226e+01  3.3590510224540466e+01  3.4355659389841350e+01  3.5087158067758196e+01  3.6033065662889292e+01  3.6546419530787361e+01  3.7210119879810449e+01  3.8567693969241844e+01  4.0303732818979043e+01  4.1249914102489640e+01  4.1094092530910039e+01  4.1054390957774963e+01  5.2268854064866630e+01  6.0678337174249613e+01  8.5359407445651726e+01  8.7772004887246865e+01  8.8196573798905163e+01  8.5365629969155208e+01  8.8053071327908853e+01  4.9344678681042851e+01  8.5163836103126954e+01  8.6695279931534870e+01  7.3545995424684406e+01  7.2765533349970838e+01  6.0396185109076391e+01  6.0266139882452897e+01  8.6996259498993467e+01  5.2268929094174062e+01  5.2157796799719655e+01  8.5073623455703341e+01  8.5620849402698923e+01  4.9343338199335697e+01  8.4277659004235346e+01  8.6695355885574529e+01  8.5772971779163697e+01  8.4921327436990950e+01  8.6637054803075586e+01  8.4998326086825642e+01  8.6636378457488433e+01  4.8991605810107593e+01  6.6673131913415276e+01  7.5904532050419064e+01  5.1190624881507667e+01  3.6150172713048562e+01  5.2364660884450352e+01  7.5323572128661155e+01  6.0866361703409879e+01  6.4562637557769193e+01  4.2124740226460759e+01  4.2338131854913293e+01  7.5269675568132158e+01  4.6850240294705387e+01  8.2280721686605574e+01  6.7489847608867350e+01  5.3654436726441709e+01  5.6691047068097809e+01  6.8634370041252026e+01  3.3806642371666783e+01  7.8283179752326575e+01  6.1615333709638499e+01  7.0276507110230881e+01  5.2183727564507137e+01  3.6630154425150188e+01  4.6316355632933416e+01  4.4852427617435815e+01  5.7477609248534726e+01  4.2777489513054604e+01  8.1485175060805787e+01  3.6684609885666987e+01  7.6065879252532056e+01  6.3965861385699107e+01  7.0279370368146957e+01  5.0813941858342844e+01  7.2666052571934202e+01  5.9896183322800496e+01  6.7652762301069089e+01  6.5012072954408623e+01  5.5849929112943904e+01  3.8430658258437425e+01  5.9643923920448003e+01  7.9871589542818114e+01  7.4719832507984634e+01  8.5757816249232079e+01  7.0982073419706836e+01  6.9637355861984545e+01  5.6341277522459379e+01  3.9527625533057872e+01  4.1946872001247861e+01  5.9367709528118446e+01  7.9376060960794106e+01  6.1242567563903911e+01  3.5227966077315763e+01  3.8808586570571485e+01  8.1432388680671266e+01  4.5082249208768971e+01  3.2402085689485673e+01  6.8009505692822970e+01  7.6134463300837496e+01  6.5481656512999024e+01  4.7932450774504304e+01  8.5334149725308848e+01  3.8022489848490608e+01  5.1109064872781921e+01  6.0021415440827035e+01  6.5264092470872072e+01  5.6494214449761998e+01  4.7042860611631767e+01  4.3983871383061413e+01  5.5730639155130575e+01  4.7849352229632323e+01  4.7824769306672756e+01  4.4822972993356906e+01  4.9179281673480091e+01  8.4802124683956265e+01  7.8795222566026254e+01  5.3075691005305139e+01  8.3386966248319453e+01  7.6011796650825772e+01  7.3385753451901437e+01  8.0817552537236651e+01  6.2803266917622921e+01  5.9273666102888278e+01  6.5941358288996796e+01  7.2470409666359259e+01  5.7939771118963932e+01  7.8371721276829447e+01  4.9874405098137878e+01  6.5698168561610714e+01  3.2736415164688474e+01  4.8991326127179711e+01  6.8994673205282055e+01  7.7794739459453950e+01  6.3030403993452538e+01  7.1142972102049924e+01  6.1701531980255510e+01  7.1966574570230392e+01  3.5622200355790810e+01  5.2753067152418993e+01  5.3515893529619788e+01  8.0042455845357722e+01  6.7086001879707041e+01  3.7464470701897568e+01  7.9592130493519036e+01  6.3579531966148068e+01  8.4470468030955161e+01  3.3545662040155541e+01  8.5045334894179689e+01  8.4969661619577252e+01  5.5436092451556021e+01  5.1135044863544486e+01  8.5039879174839541e+01  8.6024149844614783e+01  8.3185848193006223e+01  8.5305977801717290e+01  7.1697930064400893e+01  3.6232414291582572e+01  8.1006861518092776e+01  7.6121978806905446e+01  5.6310343694418826e+01  5.0714210418719219e+01  4.7519530854910926e+01  8.5772397447838927e+01  8.4961620164879719e+01  5.8657181850125447e+01  8.6075878529396704e+01  8.3963928901081317e+01  8.4465993695629052e+01  8.6166699675588418e+01  5.9875322011591258e+01  4.9225304943898891e+01  7.1448586733928465e+01  3.4354076999022567e+01  4.9293728354681939e+01  3.6552487853048099e+01  6.9441075499466251e+01  8.7549531877187803e+01  6.6911999618827110e+01  7.2946938199777478e+01  8.3651521706161574e+01  6.0075391654419597e+01  3.2731958389505607e+01  7.2236818015373714e+01  3.9505549883355634e+01  5.2559186060348814e+01  8.5080491745400380e+01  8.3113673738319875e+01  6.2286006860795759e+01  8.7553505797996692e+01  4.3727891237369711e+01  8.5615199805621984e+01  6.4139135962334223e+01  3.2675761072098183e+01  3.6412891790323926e+01  3.7505534046917596e+01  7.2697340956355461e+01  8.2082871289979948e+01  8.1420560722163884e+01  6.8913961607008403e+01  8.5499882867328665e+01  6.0319203121547986e+01  4.9235767691784261e+01  4.9223437609166766e+01  3.3384748389559178e+01  8.5036575557978082e+01  8.5219548888209900e+01  8.5291829927609598e+01  7.5852053443882866e+01  8.1821845363344664e+01  8.5341804226980301e+01  8.3776889300756750e+01  6.7176399939525041e+01  8.8147859275647178e+01  8.8097165478658653e+01  6.1334719905519464e+01  3.5121621428200257e+01  6.1242629870091996e+01  8.2305589714371763e+01  5.6199078983627501e+01  6.4856072616192677e+01  8.7738850205166756e+01  6.1877200944656465e+01  7.3610237226440702e+01  4.1031662621643953e+01  5.6568696801148853e+01  5.5798118864647563e+01  5.7193224957624359e+01  8.6076449185400733e+01  5.0555046824146601e+01  5.1420594734766169e+01  4.9599221588597366e+01  5.1289559534481576e+01  4.7609169233656736e+01  3.2969345022202617e+01  3.1607822752903822e+01  5.2487480128671592e+01  5.5178284605911358e+01  7.5488506539433303e+01  7.5416625627974540e+01  8.7957344278805152e+01  6.7124310422286641e+01  6.4791152551583238e+01  6.0746165419981011e+01  6.0381669970627613e+01  6.0445123511831383e+01  6.0602950760985635e+01  6.0319829859131339e+01  6.0302990541804846e+01  6.2317634071731149e+01  6.0443336569303440e+01  6.1097701292204952e+01  6.4193323233323682e+01  6.2484033670494313e+01  5.8808366502600435e+01  6.0312244213248050e+01  4.4999547367637859e+01  4.6636355044132330e+01  4.4765954584147615e+01  4.3218819863338695e+01  4.3671535399145689e+01  4.1743831118520205e+01  4.2930446830228789e+01  4.2240115220850129e+01  3.9049575030644775e+01  3.7889299191007701e+01  3.4206423755730228e+01  3.4712133512233684e+01  3.4638520259863199e+01  3.5537207886097477e+01  3.5024897329141055e+01  3.6291053194444359e+01  3.6264762348447341e+01  3.5490875092204384e+01  3.6883395788400364e+01  3.6477911989878116e+01  3.7338398516567288e+01  3.6763736526212249e+01  3.8083881529818804e+01  4.0318432634010485e+01  3.8979251374226045e+01  4.6225038015925435e+01  4.6494500939863926e+01  4.6634934889964242e+01  4.9644410895053248e+01  6.7486793044988900e+01  6.7033533319367365e+01  6.6226634226906967e+01  6.7643254527428098e+01  7.3885922361801136e+01  7.7425593697479513e+01  7.4759320746115890e+01  7.6985985123341379e+01  5.3856597728574819e+01  4.9807200449256428e+01  4.9733791202400369e+01  5.1510550079292898e+01  3.6636907960832978e+01  3.8324136052529248e+01  3.6628155644799435e+01  3.7157326822470623e+01  3.6679810021890248e+01  3.5959677816812075e+01  5.4595482061247388e+01  5.6007538406619375e+01  4.9848073350361915e+01  5.3426381979229660e+01  5.0537393103875722e+01  7.5734365208212850e+01  7.2908696097665270e+01  5.9972617576018926e+01  5.9983078000514531e+01  6.2330423832605319e+01  5.9592602684704630e+01  6.1931546791725758e+01  6.0431317213055124e+01  6.3376264400166463e+01  6.6229472482577393e+01  6.5249466233867722e+01  3.8356221190883737e+01  4.0121610111649055e+01  4.2021767374602874e+01  4.0580676820646808e+01  4.2978472113497510e+01  4.2470790262526343e+01  4.7052643879833404e+01  3.9447186798871769e+01  3.9913509112971141e+01  4.4823935085461535e+01  4.5114518684072735e+01  7.2441995830776150e+01  7.7302325464253272e+01  7.3768159770578038e+01  7.8235045267859178e+01  8.1212515212517587e+01  7.0505564225337565e+01  6.5083589373501624e+01  6.9259432211435396e+01  6.7012556443510192e+01  5.0350594090775779e+01  5.4485206493117317e+01  5.5848985275062695e+01  5.0983769534175465e+01  7.1895748571839704e+01  6.8957841474874627e+01  6.9306205618644285e+01  6.6493137904495129e+01  3.5170766151747110e+01  3.4366012473516697e+01  6.1355412411562050e+01  6.0248777609003817e+01  5.8968860380104296e+01  7.1094992247751421e+01  6.8695305461146191e+01  7.2144915552291778e+01  6.8896741033493640e+01  5.4221169794075969e+01  5.0270901536475264e+01  5.0418560102763081e+01  5.2155605708789103e+01  5.0966039724687853e+01  5.2723378191746392e+01  3.7429896969330684e+01  3.6340068645546481e+01  3.7248280535648242e+01  3.6334267776310668e+01  3.6854370487300656e+01  3.6691709462585550e+01  4.5649420607521741e+01  4.6444565751217553e+01  4.7469912051699303e+01  4.6423395146743339e+01  4.0520770099075648e+01  4.6136652600698476e+01  4.6224259096173263e+01  4.7237617080579092e+01  4.1464976253424474e+01  4.4131622679389942e+01  5.6927415629128191e+01  5.9062533385828729e+01  5.6698163788163029e+01  5.5451719342882306e+01  4.0637832193472015e+01  4.4374275694535520e+01  3.9702402365421804e+01  4.4894211287144650e+01  3.7648046751950403e+01  3.4940315523314425e+01  3.7422432514385989e+01  3.6138599107316814e+01  3.6461611629461579e+01  3.5612734140645081e+01  3.7134109116755099e+01  6.2829737446458495e+01  6.2695048220307889e+01  6.5318500488976113e+01  6.5805128606490513e+01  7.0660489044484123e+01  4.8991944257925994e+01  4.9407349500003200e+01  7.0763679914483092e+01  6.2416014614837039e+01  5.9080711886690196e+01  5.8262903514048340e+01  6.1804484336935332e+01  6.8822574308220723e+01  6.6876949040177891e+01  6.3796109587370260e+01  6.3496976384839478e+01  5.7547326893271084e+01  5.2667975115957255e+01  3.8423137052512693e+01  3.8737661856871910e+01  3.7951959138024819e+01  5.9237869521477243e+01  6.0454723428929718e+01  7.6180061994871380e+01  7.8950615624412436e+01  7.2801023374809859e+01  7.6833417829562123e+01  7.3294630473945716e+01  7.3116759425737072e+01  6.7490267537109915e+01  6.7282512444494785e+01  5.4495658537067790e+01  3.8393302865131155e+01  5.7126850727276782e+01  5.9144685331110878e+01  3.5322035924519930e+01  3.6023694631898174e+01  3.5222832733476672e+01  4.2423720238987428e+01  4.4943237584874623e+01  5.1439510966547594e+01  4.7940449838205886e+01  4.8159045187488708e+01  5.0634178170260022e+01  5.9704359321518275e+01  5.9964328270284582e+01  6.0666418756165385e+01  6.0692352962902135e+01  6.4352243551895114e+01  6.4112649360385120e+01  5.4615340854872684e+01  5.0325053897153538e+01  4.8316539956821529e+01  5.0853731560564903e+01  4.8502099199704844e+01  4.5648998098579142e+01  4.7079329549589602e+01  5.5509705255316391e+01  5.2000885460579902e+01  7.5755596108247659e+01  5.3883055464042052e+01  5.0569892294627593e+01  6.1526835869565261e+01  6.4526385631672042e+01  6.9098263637552691e+01  6.7014065565182847e+01  3.6993095534342459e+01  3.4281772426888168e+01  3.6954559614394654e+01  5.9952137220445060e+01  3.5889307204881611e+01  6.0673759503097287e+01  4.1614635348517723e+01  3.8321817056127500e+01  6.1536573418114841e+01  4.7672881591988642e+01  6.7536359954087970e+01  3.6345655602712306e+01  3.6824297472002606e+01  3.6216296488482456e+01  3.6330862882317227e+01  3.6173437743885174e+01  6.1099808086245915e+01  4.2493213518800843e+01  4.4709583952364440e+01  4.3639859659866033e+01  7.5364016564878824e+01  5.7692492526530408e+01  5.1966464679284421e+01  5.2149310440410730e+01  5.3421958508169091e+01  3.4996179923975852e+01  6.8604708589758104e+01  6.9244920345647287e+01  3.7072709914669048e+01  3.6833312617505371e+01  4.5872717781989216e+01  4.6020089455871911e+01  4.2545839245483997e+01  5.6211627233827919e+01  5.9572865675151903e+01  6.1024487113348940e+01  5.8702790191337655e+01  6.1926122012499299e+01  3.9185776457590428e+01  3.8007020456768267e+01  3.8524793874898762e+01  3.8211733055815387e+01  6.9153875664688030e+01  3.7941265425955820e+01  3.9661808434295160e+01  4.0580059015630923e+01  4.8733095794449547e+01  4.8983056541699220e+01  4.9454629794458818e+01  4.7631600603960898e+01  3.8922447589227275e+01  3.7543876519566140e+01  3.8268753098755177e+01  4.8624389495394020e+01  7.2730157000416014e+01  7.3389001029848544e+01  7.4505877013900289e+01  6.2420755729087070e+01  6.6421795053823445e+01  5.1743941805097045e+01  4.9288019886556903e+01  4.8569383427104235e+01  4.9790694544245788e+01  6.3598123312741734e+01  6.0771702949059382e+01  6.1445225610761511e+01  3.6083011343501035e+01  3.5856670642401184e+01  3.5800579128509760e+01  5.2324346703715754e+01  5.4058356828640626e+01  5.3363205430566566e+01  5.1490974483461997e+01  6.5757906853267855e+01  3.6051784001601639e+01  3.6269359674757908e+01  3.6225328732561167e+01  6.0462713589563656e+01  6.0246228703887937e+01  6.0293034861148662e+01  4.2664714713865202e+01  4.3885320467332292e+01  4.4633450104065481e+01  3.7523861581589905e+01  3.5300781937690523e+01  3.5598300093535805e+01  6.1391951078792182e+01  6.2883568043813305e+01  6.2029115750745930e+01  6.1216204968176108e+01  6.1217587476550193e+01  6.1655077738227149e+01  6.0846419435290883e+01  4.5091970614281031e+01  3.5685444333819575e+01  4.6299198050892400e+01  6.8057952213113893e+01  5.0584497237706145e+01  5.0074012336805275e+01  3.6205541406382842e+01  3.7208111142068766e+01  3.7335851160667815e+01  3.8603755537016426e+01  3.7801328597437944e+01  3.6968391590997072e+01  4.9979493157287919e+01  4.8669242950058290e+01  4.9166375449094780e+01  6.0802101977268329e+01  6.0921391013453359e+01  3.7656675340907199e+01  3.8585810765056408e+01  4.0757492059200445e+01  4.1425359006193823e+01  4.6116127402239400e+01  3.9682841202090771e+01  3.9759101462348355e+01  3.8930640585779408e+01  4.7455951902864072e+01  7.4772081560103700e+01  5.0760704005320889e+01  5.2921472551965515e+01  5.2404465114779669e+01  6.7340896045921625e+01  6.8033901408091651e+01  6.6655513422091033e+01  5.1221572221639910e+01  5.3299288503406189e+01  5.1257401756902667e+01  4.4850076093638535e+01  5.4852169613651441e+01  5.4879216818453820e+01  3.8031611501766399e+01  3.7768160621175745e+01  6.3957138918111696e+01  6.3581655512776088e+01  6.4801394889310231e+01  3.8302543674850696e+01  3.5961840943667447e+01  </DataArray> 
</PointData> 
</Piece>
</UnstructuredGrid>
</VTKFile>