<?xml version="1.0"?>
<VTKFile type="UnstructuredGrid"  version="0.1"  >
<UnstructuredGrid>
<Piece  NumberOfPoints="784" NumberOfCells="1320">
<Points>
<DataArray  type="Float64"  NumberOfComponents="3"  format="ascii">266913.131276 586512.314988 0  266738.13716 587762.325998 0  266363.132677 589012.328643 0  266175.641078 590169.601714 0  265666.575631 591040.7699119999 0  264875.64001 591687.766419 0  264900.636161 591845.049083 0  266088.14152 592012.3229499999 0  265561.959259 592661.17101 0  264288.136855 593037.368683 0  263865.194033 593999.8486949999 0  263850.641856 593236.729596 0  263625.634872 592756.525286 0  262689.574249 593299.848918 0  262475.636737 594003.0907310001 0  261934.554452 594340.929792 0  261725.631329 594932.094409 0  261729.256443 595728.498809 0  262138.136044 595012.330523 0  262288.141035 596262.333669 0  261488.994028 597511.480605 0  261234.15567 598316.338928 0  260815.635063 599014.863821 0  261400.643658 599389.7367680001 0  261322.963374 600022.185065 0  261119.455248 600931.061306 0  261607.436504 601293.0629359999 0  260807.446929 602089.899812 0  260025.642878 602988.868697 0  259613.135827 603937.3854499999 0  259050.643123 604100.987861 0  258411.880065 603988.6335979999 0  257764.357469 604449.872569 0  257971.239668 605320.429125 0  258041.396867 605740.635381 0  257188.143339 606987.394312 0  256038.141198 608112.3554550001 0  254788.141633 609087.4026939999 0  253588.140656 609812.362881 0  252338.135706 609737.4048949999 0  251088.138116 609787.404055 0  249963.12851 610287.399466 0  248613.130524 610462.365857 0  247363.132198 610687.407659 0  246113.130532 610837.411551 0  245832.347438 610918.209918 0  245016.946433 610958.5639439999 0  244313.129646 610762.372259 0  244400.622144 611378.093316 0  243939.669208 612460.8930899999 0  242960.649733 611984.892792 0  242170.381438 611919.647351 0  241888.122919 611112.375656 0  241393.380757 610467.6456149999 0  240594.157528 611306.369822 0  240525.621947 610804.648112 0  240363.123632 610512.3745050001 0  239113.123247 610262.374278 0  239813.12126 609037.412459 0  240588.122952 607812.368199 0  241013.119545 606625.9534560001 0  241454.373249 605724.888025 0  242238.120107 604687.3993 0  243088.121248 603462.362766 0  242860.319451 603007.3932640001 0  241563.116617 603812.361344 0  241778.400913 604327.642217 0  242059.837234 604824.879102 0  241475.620201 604923.2402390001 0  241462.182234 605449.881372 0  240906.219606 605674.888222 0  240241.856192 606891.125066 0  239891.734044 607841.012479 0  239048.653431 608724.889805 0  238118.054545 608974.895967 0  238888.111029 607337.406468 0  239738.119992 606212.362729 0  240288.12044 605687.4075229999 0  240380.212307 604729.521696 0  239347.309632 604603.204501 0  238888.112036 604387.408787 0  237913.11173 604687.401386 0  236784.172023 604499.882783 0  236883.408793 603717.08334 0  236154.933927 603595.565605 0  235688.103943 602912.369264 0  235763.108033 601662.366516 0  236363.110805 600412.35884 0  236738.107995 599162.356577 0  236525.607944 598482.2412899999 0  236138.109208 599362.357613 0  235725.063048 600325.4466510001 0  235091.948926 601408.5220979999 0  235188.10921 600312.366344 0  234375.602405 600833.9674270001 0  234663.109308 599912.358011 0  234138.105122 600062.365644 0  233955.307245 599029.561063 0  233338.103791 598387.401556 0  233988.09795 597862.356384 0  235138.101489 596637.3947750001 0  235563.1039 595387.392428 0  236513.103639 594212.356312 0  237163.10684 592987.3929869999 0  238313.103031 591862.3515540001 0  239513.107028 590812.3512640001 0  240638.102135 589787.387271 0  241463.109549 588587.378486 0  242294.489816 587443.735215 0  242913.101099 586512.341804 0  243544.066915 585474.859604 0  243040.448415 585184.975583 0  242438.10214 585337.38015 0  241313.102353 586562.339499 0  240538.107104 587787.382449 0  240114.641085 588588.939407 0  239388.100256 589437.382238 0  238188.104456 590512.346358 0  236938.100507 591362.349798 0  235813.10453 592537.396388 0  234864.502938 593178.7753880001 0  234463.097651 592862.357267 0  235113.0965 591662.3545979999 0  235713.101522 590412.346099 0  235777.688431 589976.7582779999 0  234943.583145 590706.265132 0  234462.482256 591490.2841159999 0  233801.497784 592112.940187 0  233388.099101 591787.394208 0  234013.093099 590437.393065 0  234776.217248 587148.7548100001 0  235163.093726 586562.3486189999 0  235313.098918 585483.229012 0  235250.59732 584662.298153 0  235588.093896 583337.379493 0  236329.432041 582199.858992 0  237188.096234 581462.3349939999 0  237463.088521 580212.335511 0  238350.592558 579057.652616 0  238591.415797 578574.847681 0  238313.094106 577612.328905 0  239229.696732 577695.769664 0  240195.161018 577513.008613 0  240614.996733 577149.8518770001 0  240663.091715 577412.332622 0  240288.092486 578662.334085 0  239942.357258 579508.095811 0  240438.100019 580212.3334220001 0  241338.095553 580387.375355 0  241238.099828 579137.369157 0  241788.097003 577887.370889 0  241983.554649 577241.9220939999 0  242054.178239 576927.8105029999 0  242588.100699 575737.366175 0  243149.324833 574898.583978 0  243695.278626 573919.517981 0  244268.494418 573724.8454239999 0  244995.134063 573930.2767810001 0  245417.314363 573391.601898 0  243450.599125 571859.479773 0  245776.797908 572599.8353060001 0  246779.639852 572973.285167 0  248034.741935 573186.082054 0  249413.10651 573162.3205520001 0  250496.922226 573271.1521899999 0  251613.105126 573237.3551319999 0  252421.824577 572846.032906 0  253256.245022 572580.4733130001 0  253739.471933 571960.9547369999 0  254174.511864 572149.8346569999 0  254484.944333 571684.194807 0  254384.108649 570891.346712 0  254344.002752 570218.26407 0  255025.609604 570829.0294979999 0  255715.005913 570489.264586 0  256218.846343 570774.828355 0  256834.349083 570508.5908 0  257390.092515 570014.308325 0  257624.431042 568493.478911 0  259355.811717 569380.021819 0  260033.372814 569617.066669 0  262679.741751 570320.699974 0  263289.115756 569524.817815 0  263463.114338 570512.301061 0  264638.198419 570687.3443539999 0  265058.220065 571334.378467 0  265447.561421 572077.90485 0  265488.125257 573137.3446020001 0  265131.937715 573963.293593 0  265432.389648 575093.068786 0  265638.122314 576338.029955 0  265750.630817 577371.8281319999 0  265738.570663 578561.9098850001 0  265875.630866 579139.630549 0  266213.129247 579862.311842 0  266563.130472 581112.314509 0  266238.135356 582362.310259 0  265938.12863 583612.320897 0  265738.131342 584762.3210189999 0  266875.638633 585365.358768 0  264018.7239399826 593650.4646671159 0  262236.3944351029 595831.1252656333 0  241846.246678 605206.1436625 0  240200.622106 608424.8903290001 0  240943.4862974102 610939.7757535663 0  236550.6094 599787.3577085 0  238528.1212051503 608102.9081793013 0  244413.4891967989 572609.5960859474 0  236382.0474488751 598808.3067022427 0  235369.601910944 600933.5380148316 0  235413.099011 591037.3503485 0  235446.2251831186 590266.6553871984 0  240475.5921005 578037.3333535 0  240413.173949154 577324.4280286073 0  240574.037899 606283.0066440001 0  263857.9179445 593618.2891454998 0  264153.4303974913 593343.916675058 0  242042.1833925 604946.7714812499 0  241650.3099635 605465.51584375 0  244613.6985165 572229.6575395 0  236631.8579695 598822.2989335 0  235140.029068 600860.444221 0  241767.7287175 604874.0596705 0  242140.15174975 604817.0853906251 0  234781.8558075 600573.1668855001 0  242091.167571125 604881.9284359375 0  234519.3558565 600373.162719 0  254604.8337712102 583989.0014118921 0  250699.5846056537 594617.3297041012 0  250540.4796469513 602258.2940568649 0  248483.7490186612 580334.7345534252 0  258549.2190328319 577893.951823392 0  257067.0067473103 590016.5327808241 0  243285.0921999099 596333.923437875 0  248333.1386145258 589098.0389905117 0  256142.8445072741 595883.3911551933 0  260245.1368072523 583315.2785712298 0  253472.3380211276 578932.2908163272 0  246432.3347504817 599884.5019511909 0  261555.9240922556 588041.186709004 0  247293.1100123104 605823.8307887657 0  246458.2798550911 593168.8646574575 0  252840.0183145193 588226.5564648228 0  249828.2874404451 584740.7888937403 0  255409.5660975206 600458.8956828594 0  260819.9733392385 574219.403683011 0  252584.2262054711 605722.6603825617 0  254049.8830611471 592547.4852571967 0  250015.4356193061 598425.2225922942 0  245872.072249477 577604.9761853142 0  262002.1583249522 579753.4663046852 0  257732.6630933878 586227.970805314 0  250242.5556457866 577017.3316409125 0  244921.6453001869 581816.6358421432 0  256520.3890639471 580904.824006648 0  240779.0970645865 599524.6679555867 0  257100.1829219198 574459.5922545703 0  239912.2630002034 595231.1172704464 0  244703.0875078634 590068.6945953515 0  242549.5490268674 592874.3693043783 0  251586.0465921376 581796.2215047925 0  246643.189997516 596527.447801719 0  251049.7658069622 591057.6752245198 0  253014.5731561695 596998.6601086652 0  238680.2197353724 584542.2309791476 0  259715.365803504 591937.1938619445 0  254097.157218761 575731.4494927844 0  246806.6408589328 586139.0877599345 0  246136.1179750556 602959.471719323 0  253520.7033332401 602835.180253843 0  244125.4295793909 607538.9817227355 0  252546.8895354472 599881.3279113505 0  258289.0983523553 600397.640191779 0  247518.7952199645 583037.3718217331 0  263140.3959879661 582529.2228421422 0  262894.8586894067 585442.3590432997 0  256968.6320599076 593040.7691844478 0  243573.0187527719 600218.2795730785 0  258888.5766127351 595139.7745218446 0  262588.7569809347 576734.8569237856 0  259318.4257992262 580601.2540325444 0  249963.3812725965 607065.7205847671 0  257494.5307999607 583482.5893534871 0  258906.4757205145 572278.8089438241 0  237751.446593475 587300.5805003279 0  255142.4708720699 604956.7580261135 0  258485.4978753244 597756.9250383095 0  255516.7820591553 587791.39641967 0  239758.4692108706 601926.8203218657 0  255873.0092222999 577739.5085867504
[...]
<PointData  Scalars="f_32-1"> 
<DataArray  type="Float64"  Name="f_32-1"  format="ascii">4.1306609210876694e+01  4.2633313361793263e+01  4.4678149577716859e+01  4.6530891617415385e+01  4.7880481018403145e+01  4.9934403916177502e+01  5.0611704966756491e+01  5.1017790502173384e+01  5.1081329582940093e+01  5.1843874523016567e+01  5.2362857414423573e+01  5.2126638159909049e+01  5.2210339825351646e+01  5.4638159647823748e+01  5.6044984501189013e+01  5.7223612466860480e+01  5.8688144575122983e+01  6.0141423168149608e+01  6.0054391475448853e+01  6.0541876853647722e+01  6.2800446816233432e+01  6.4557640652505299e+01  6.6507275772890523e+01  6.7530864382239187e+01  6.8086715695876251e+01  6.9430913018477028e+01  6.9818960899822855e+01  7.0583775865165649e+01  7.1980236991924500e+01  7.2792979580645948e+01  7.2967060382361709e+01  7.3375529597641474e+01  7.4446308471930379e+01  7.5354864950123996e+01  7.5528784699194148e+01  7.6445822855565311e+01  7.7724488014319576e+01  7.9082733480252202e+01  8.0064007820153449e+01  8.0872741049864999e+01  8.2088063525468513e+01  8.3228879983611975e+01  8.4243508671335036e+01  8.5125578728269048e+01  8.5905569914965014e+01  8.6068606974803330e+01  8.6484872298691627e+01  8.7027421736110313e+01  8.7465132173884925e+01  8.7672449479195961e+01  8.7716907600876326e+01  8.7759299754646690e+01  8.7738207628895225e+01  8.7822721759640388e+01  8.8049774360067033e+01  8.8031761767521004e+01  8.8034755299900752e+01  8.8130890075627164e+01  8.7880844146537001e+01  8.7130582930834890e+01  8.6301714212062222e+01  8.5621517789204972e+01  8.4541680859770722e+01  8.2787692578406791e+01  8.2584088695879174e+01  8.4780634512485307e+01  8.5346564167958974e+01  8.5475311299861204e+01  8.5630907139660565e+01  8.5849238629556837e+01  8.6136016969316785e+01  8.7200138389167833e+01  8.7618801898321365e+01  8.7874935993821992e+01  8.7934927910205445e+01  8.7650121006239132e+01  8.7026792537772778e+01  8.6421727575249676e+01  8.5807299566200584e+01  8.6206199198830873e+01  8.6522769663437842e+01  8.6951516186704310e+01  8.7070625579074431e+01  8.7065839976054178e+01  8.7115120642365596e+01  8.7090673835116149e+01  8.6808642451897114e+01  8.5907637051958545e+01  8.4412828762437528e+01  8.4250513876521779e+01  8.5750366700375835e+01  8.6397857533226116e+01  8.6591164142693628e+01  8.6446459258922587e+01  8.6539075641664482e+01  8.6384569776457369e+01  8.6375583322703264e+01  8.6177332481002736e+01  8.6092844743894616e+01  8.5800464705964018e+01  8.3512374423534567e+01  8.1088400078355875e+01  7.7957260518906907e+01  7.4958317922938875e+01  7.2085933155773574e+01  6.9732225531727664e+01  6.7931058298624691e+01  6.6354855503281001e+01  6.4666459015547744e+01  6.3164414160272209e+01  6.1244928818343034e+01  6.0548128744985014e+01  6.0947790681645301e+01  6.3925952541465250e+01  6.6216764716833808e+01  6.7132320330677075e+01  6.8079836536073827e+01  6.9769204588781960e+01  7.2137479826796380e+01  7.5009842920006164e+01  7.5859828752993067e+01  7.5869358109641240e+01  7.4595374827511492e+01  7.2191179422873546e+01  7.1773354341120253e+01  7.3928482296693787e+01  7.5408875949325036e+01  7.5925433361258555e+01  7.5931111886838920e+01  7.4337027326911468e+01  6.9547588041519333e+01  6.8827875555979162e+01  6.7773151122394978e+01  6.7201697204031092e+01  6.6290457766407997e+01  6.5137525676876507e+01  6.3757246793691927e+01  6.2437080060547380e+01  6.1245047754387556e+01  6.0732837942392358e+01  6.0432378516793420e+01  6.0308865056322496e+01  5.9949623951962693e+01  5.9844607309390859e+01  5.9857149062776372e+01  6.0325529312552483e+01  6.0997098735513319e+01  6.1102281786954883e+01  5.9921321328176795e+01  5.8646408469207330e+01  5.7447873068222869e+01  5.6710990832769092e+01  5.6388336140575213e+01  5.4876561153075421e+01  5.3495880736079222e+01  5.2240160292101208e+01  5.1850091448078629e+01  5.0673590954452600e+01  4.9201110713383407e+01  4.9341480535077046e+01  4.8765105713701779e+01  4.7929973270379200e+01  4.6021509420358377e+01  4.3809476127761712e+01  4.2407110816584421e+01  4.0803879650484106e+01  3.9466190517663705e+01  3.8181787265747090e+01  3.7450405706700941e+01  3.6989596136986087e+01  3.5959818507234232e+01  3.5343253197128682e+01  3.5272031643227940e+01  3.5159904386118136e+01  3.4613850046465217e+01  3.4116290986670094e+01  3.3018122244791776e+01  3.2149826508663317e+01  3.2655452687752494e+01  3.1192511843759615e+01  3.1175545898315882e+01  3.3047067694399821e+01  3.3147572435872746e+01  3.3250417335509461e+01  3.2898099430103656e+01  3.2427695208825575e+01  3.2023094343344610e+01  3.2098949228221080e+01  3.2631082223652697e+01  3.3402987784345619e+01  3.4187743124986802e+01  3.4977554833426858e+01  3.5996262346988544e+01  3.6448838229495927e+01  3.6999826455740632e+01  3.8355008872553753e+01  4.0274221736953422e+01  4.1209266312572559e+01  4.0830548156277743e+01  4.0767569015777354e+01  5.2301223056393987e+01  6.0288565857903329e+01  8.5133443655088428e+01  8.7568757973489951e+01  8.8020718241605707e+01  8.5191164631416171e+01  8.7851527561513464e+01  4.9147673502795747e+01  8.5011525693344751e+01  8.6554138412210634e+01  7.3399814410420291e+01  7.2589299524894628e+01  6.0020048100522608e+01  5.9866329023178665e+01  8.6738919026162009e+01  5.2301411982995994e+01  5.2153623068693214e+01  8.4850848593970539e+01  8.5395327735159526e+01  4.9146836391273105e+01  8.4099356819485251e+01  8.6554199586111324e+01  8.5502171165835634e+01  8.4700585606511453e+01  8.6507349961271586e+01  8.4776736771854672e+01  8.6506772361396557e+01  4.9209609803276884e+01  6.6810158922063451e+01  7.5789677403231394e+01  5.1629680538876336e+01  3.6566105148880972e+01  5.3125134573000565e+01  7.5110028401169046e+01  6.1260749350349201e+01  6.4381841694102263e+01  4.2031527752253574e+01  4.3161338317960677e+01  7.5421670133133830e+01  4.6599192672884854e+01  8.2037768602648143e+01  6.7594526256657062e+01  5.4509027020506011e+01  5.6553451012696954e+01  6.8918729157738824e+01  3.3697609199999839e+01  7.8012614264766199e+01  6.1631346838158159e+01  7.0701806531306389e+01  5.2187546252188874e+01  3.6851802330249221e+01  4.7032533206823999e+01  4.5171753050729926e+01  5.7606155377874245e+01  4.2946881674030159e+01  8.1231116391977864e+01  3.6632236512214369e+01  7.5735133077719013e+01  6.4710528124668969e+01  7.0008840485124850e+01  5.0653692473328299e+01  7.2538635242195809e+01  6.0522110355165267e+01  6.7884643886688011e+01  6.4853631275923576e+01  5.5732880386562471e+01  3.8640511404200339e+01  5.9708961227773344e+01  7.9754378460514332e+01  7.4547394535094639e+01  8.5526776138260800e+01  7.1171574872171391e+01  6.9527968215047508e+01  5.6292964227530611e+01  3.9517424697296903e+01  4.1663002592408944e+01  5.9469114636757418e+01  7.9096061907866911e+01  6.0971506404783767e+01  3.5143689244248165e+01  3.9119766237989133e+01  8.1198065713916250e+01  4.5147469879842077e+01  3.2127881587853807e+01  6.7741029200235147e+01  7.5868675400613185e+01  6.5290866394559757e+01  4.9655714201661887e+01  8.5237449396581894e+01  3.8534981513353898e+01  5.0886631977792547e+01  5.9964307341490922e+01  6.5383942477025641e+01  5.6415115899307956e+01  4.7081933300749277e+01  4.3721139321906435e+01  5.6439082827062613e+01  4.8004843550166875e+01  4.7855758743060200e+01  4.4603415656215333e+01  4.9398817389980934e+01  8.4579560542728601e+01  7.8531428463474370e+01  5.2995559143572386e+01  8.3162680415172758e+01  7.5810192430711965e+01  7.3796267333670968e+01  8.0546914326161911e+01  6.2608660826225133e+01  5.9111788844605627e+01  6.6303467671245272e+01  7.2355106011258897e+01  5.7975148463040640e+01  7.8263147627322851e+01  5.0748677343664745e+01  6.5582750453885453e+01  3.2555341253338355e+01  4.9453841543429483e+01  6.8995245645218560e+01  7.7476394564674806e+01  6.3892896499085708e+01  7.0963880278761394e+01  6.2253126355860985e+01  7.1611308918600216e+01  3.5754128396730941e+01  5.3420076677379008e+01  5.3347060114477543e+01  7.9799905955399254e+01  6.7398124598329701e+01  3.7490408546003799e+01  7.9359601688778298e+01  6.3605500241077053e+01  8.4342057458491695e+01  3.3392929919155598e+01  8.4816051839075129e+01  8.4745821859039211e+01  5.5313789551015418e+01  5.0977479623935139e+01  8.4816764496211889e+01  8.5818689577748714e+01  8.2975160411296031e+01  8.5178415030352767e+01  7.1503714561828815e+01  3.6105136403759779e+01  8.0827179481556101e+01  7.5859457056150049e+01  5.6178877458078496e+01  5.0553344581270821e+01  4.7269597663926021e+01  8.5543408662561987e+01  8.4740230888190581e+01  5.8435822795344968e+01  8.5901493373259896e+01  8.3749746774418853e+01  8.4251583315903375e+01  8.5975547387247502e+01  5.9813026307701456e+01  4.9022793892470766e+01  7.1165748082470301e+01  3.4163629926713860e+01  4.9071081319863403e+01  3.6647055833835871e+01  6.9179875264402440e+01  8.7333390559925093e+01  6.6710912394070860e+01  7.2801602806402244e+01  8.3459535219918976e+01  6.0090945724431798e+01  3.0980463879816099e+01  7.2043661659397401e+01  3.9498765000174330e+01  5.2333402217539223e+01  8.4936587981149827e+01  8.2953924629095781e+01  6.2031525143428219e+01  8.7338765152478231e+01  4.3940584483741070e+01  8.5481126546969620e+01  6.3901216501462798e+01  3.2517538895549727e+01  3.6268834816985077e+01  3.7353719703213180e+01  7.2563035580429371e+01  8.1862076412273353e+01  8.1164204140216341e+01  6.8689701146484495e+01  8.5273394167099966e+01  6.0012109369902468e+01  4.8993443019611149e+01  4.8983851785530746e+01  3.2407941791654032e+01  8.4814533708998283e+01  8.4994578786497939e+01  8.5066147643099015e+01  7.5590373673688759e+01  8.1595273517708748e+01  8.5146540834276209e+01  8.3581441623139042e+01  6.6931894496037955e+01  8.7967324325844032e+01  8.7911913951379375e+01  6.1157001703904491e+01  3.5076144518655532e+01  6.0962573581650084e+01  8.2090534480628136e+01  5.5981364808393465e+01  6.4651348736342698e+01  8.7541653413928444e+01  6.1817578828931708e+01  7.3421155205627443e+01  4.0905055772222951e+01  5.6441934994770904e+01  5.5664200319793899e+01  5.7056097616512183e+01  8.5943574687017943e+01  5.0389074373590134e+01  5.1284723227912146e+01  4.9408558092182211e+01  5.1154359472577994e+01  4.7410498763983554e+01  3.2872674797540299e+01  3.1290109744845509e+01  5.2294719951871294e+01  5.5025320446965836e+01  7.5589718459682047e+01  7.5505539121258550e+01  8.7761718314114830e+01  6.6981653798849067e+01  6.4875878745763160e+01  6.0765581340949979e+01  6.0294811127580139e+01  6.0417932148297417e+01  6.0615387827621348e+01  6.0308034385454427e+01  6.0334206501405312e+01  6.2284702089858371e+01  6.0471167721896371e+01  6.1108819306208126e+01  6.4087627962626783e+01  6.2451641908232162e+01  5.8655828710093914e+01  6.0168597165634708e+01  4.4815608607086581e+01  4.6550076864929991e+01  4.4713635796355426e+01  4.3109601733287107e+01  4.3677341569836820e+01  4.1653589034435271e+01  4.2970763503511186e+01  4.2272890206524607e+01  3.8928161747892936e+01  3.7739590173133912e+01  3.4052910139264725e+01  3.4567194917599458e+01  3.4508193632986199e+01  3.5484427098171025e+01  3.4935881755828014e+01  3.6233843328350247e+01  3.6271801968024626e+01  3.5469775604350438e+01  3.6722690914215370e+01  3.6455623228412513e+01  3.7224902135232057e+01  3.6677836339151810e+01  3.7932154578649794e+01  4.0358811882362417e+01  3.8891240740915954e+01  4.7186753610460286e+01  4.6507791051102600e+01  4.6914830534573596e+01  5.0190809577435161e+01  6.7950559033529828e+01  6.7229141516605893e+01  6.6284461397435649e+01  6.7754118106475460e+01  7.3860134905786012e+01  7.7212082461041177e+01  7.4905322148061160e+01  7.6894998826298192e+01  5.4212548332108490e+01  4.9955453556026065e+01  5.0320401244352510e+01  5.2343595241772796e+01  3.6980148458812295e+01  3.8673421773128041e+01  3.6744924494996226e+01  3.7553673495450212e+01  3.7028937612722068e+01  3.6340662819445022e+01  5.4775810450524752e+01  5.6484878240566843e+01  5.1137918050304087e+01  5.4321727391623774e+01  5.1121910925802865e+01  7.5499264951055139e+01  7.2716835127596909e+01  6.0526946476793846e+01  6.0366496316753981e+01  6.2759728385276375e+01  5.9745850869501915e+01  6.2574353597858185e+01  6.1313925208721592e+01  6.3268296455411146e+01  6.6255118302326437e+01  6.5107316588984872e+01  3.8580508446058460e+01  4.0082049771057001e+01  4.1817693234936918e+01  4.0700922225653208e+01  4.3579470898204086e+01  4.2990357924488009e+01  4.7325619957340926e+01  4.0209243601020056e+01  4.0691214054478500e+01  4.5261198014780682e+01  4.5649642060202993e+01  7.2872835606807996e+01  7.7383679228090571e+01  7.4180776006525591e+01  7.8173553208981502e+01  8.1006195637540387e+01  7.0365354137336652e+01  6.5648965964474243e+01  6.9184459609234636e+01  6.7316942193503209e+01  5.1785581953592612e+01  5.5436382383088763e+01  5.6210675623457888e+01  5.1968066301399602e+01  7.1954882975257689e+01  6.9272404015780126e+01  6.9379302135138019e+01  6.6916443517732944e+01  3.5063640325005970e+01  3.4187687525625464e+01  6.1498521029873508e+01  6.0403698408966569e+01  5.9252032888223276e+01  7.1340667538270509e+01  6.9105411340510202e+01  7.2557424925076418e+01  6.9259763891188456e+01  5.4215348563482941e+01  5.0295696826859619e+01  5.0679096407302531e+01  5.2405943477803412e+01  5.0840319446752908e+01  5.2552124043355171e+01  3.7567393194094485e+01  3.6461558088413632e+01  3.7587270823645937e+01  3.6510301736241018e+01  3.7003853492646137e+01  3.6885779996614247e+01  4.6058522947416741e+01  4.7925723183728458e+01  4.7945489737220072e+01  4.7940093835869426e+01  4.1024347235620411e+01  4.6417641065766887e+01  4.6442139032049980e+01  4.7566682891041410e+01  4.1813679034193683e+01  4.4440275126471526e+01  5.7220036163345689e+01  5.8955958791665388e+01  5.6743477527892324e+01  5.5963560871943415e+01  4.0844355260075254e+01  4.4379361500073408e+01  4.0183648522903653e+01  4.5036285926805448e+01  3.7672644804115436e+01  3.4801724358747876e+01  3.7574847939136937e+01  3.6192793250976464e+01  3.6364147380058597e+01  3.5510196363697986e+01  3.7051450836890645e+01  6.3960833445633995e+01  6.3373902642208428e+01  6.5945123622476416e+01  6.6007124312452646e+01  7.0497498241455261e+01  4.8928529279929123e+01  4.9390956109734731e+01  7.0726256879922985e+01  6.2845309589910997e+01  5.9481974558249362e+01  5.8786835198972781e+01  6.2100404108863351e+01  6.9167599227492516e+01  6.7158285248544360e+01  6.3642419777798551e+01  6.3385004238611899e+01  5.7518276226527682e+01  5.2680423326744553e+01  3.8925127363279323e+01  3.8783246698196841e+01  3.7906607520744814e+01  5.9197144608870033e+01  6.0874228221370885e+01  7.6390067445702257e+01  7.8881094233141525e+01  7.2807640922210979e+01  7.6592485132645294e+01  7.3201405301893189e+01  7.3269135432839704e+01  6.7923612005796684e+01  6.7419704894788978e+01  5.5355433703174860e+01  3.8424857306619089e+01  5.7685908185623305e+01  5.8968743522619356e+01  3.5293786698245135e+01  3.6151054151422002e+01  3.5175433259345347e+01  4.2461977040611941e+01  4.4933432539983308e+01  5.2746615651647538e+01  4.9070926198752034e+01  4.9704058774289194e+01  5.0524766980300875e+01  5.9675860234830822e+01  5.9945267861272896e+01  6.0551358530091854e+01  6.0652464065077851e+01  6.4712023258184203e+01  6.4317161036566176e+01  5.4799692799627387e+01  5.0186660885625393e+01  4.8648892667164617e+01  5.0776808902954123e+01  4.8690793584892383e+01  4.5786613861091766e+01  4.7020661027139951e+01  5.5554064226215623e+01  5.2222089096104519e+01  7.5924912316996100e+01  5.4229303623360629e+01  5.1150140729545953e+01  6.2597877349751684e+01  6.5383568682018478e+01  6.9055618459243647e+01  6.7132248212536510e+01  3.7061297945646977e+01  3.4151037437694306e+01  3.6828044940889612e+01  5.9940061406112818e+01  3.5988664718332906e+01  6.0666850773585729e+01  4.1761824757479268e+01  3.8189707560575634e+01  6.1434993206607750e+01  4.8547047105454844e+01  6.7851513744407399e+01  3.6773698339106161e+01  3.7215104623078560e+01  3.6515598630403716e+01  3.6696516178101803e+01  3.6447050999222569e+01  6.1919997156620248e+01  4.3293977980380042e+01  4.5305744918162389e+01  4.4378122095949422e+01  7.5643370652106498e+01  5.8285329682503807e+01  5.3125167836452476e+01  5.3100418539177532e+01  5.4057361542269042e+01  3.4943021919489667e+01  6.9096390907750163e+01  6.9701465073468441e+01  3.7351227995108701e+01  3.7037550868935753e+01  4.6845528257860920e+01  4.7263115560811137e+01  4.2980084765670796e+01  5.6760219837001664e+01  6.0249517300727746e+01  6.1587237863082130e+01  5.9373098644068698e+01  6.2342325117179719e+01  3.9569107354728914e+01  3.8108939579840204e+01  3.8635620764791724e+01  3.8278359793326501e+01  6.9475010579996734e+01  3.8301316088365994e+01  3.9919103003336375e+01  4.0761794516798673e+01  5.0292028234860624e+01  5.0629952120607179e+01  5.1029717359969020e+01  4.9178117950742788e+01  3.9590151646389536e+01  3.7875306902047349e+01  3.8802326283406884e+01  4.9271047561824339e+01  7.3202067808946524e+01  7.3842247672710656e+01  7.4872800094445083e+01  6.2297254403815657e+01  6.6868029792382586e+01  5.2356560524780576e+01  4.9849550183506871e+01  4.9037026215576731e+01  5.0334684964809668e+01  6.4529309081003390e+01  6.1601473663346098e+01  6.2313995860051286e+01  3.6389322800048937e+01  3.6135746019804166e+01  3.5941754994013870e+01  5.2754331037127585e+01  5.4713974621910523e+01  5.4332588087244368e+01  5.2110512773483634e+01  6.6379249653401885e+01  3.6119848952671624e+01  3.6434921763792403e+01  3.6345101839136497e+01  6.0481628120455184e+01  6.0236727844240200e+01  6.0301698291043451e+01  4.2944135006673335e+01  4.4163758596890041e+01  4.4821539586139437e+01  3.7452482672194300e+01  3.5275982683593313e+01  3.5637583460827251e+01  6.1370366467833982e+01  6.2813422032297680e+01  6.1989863801300118e+01  6.1175991516559392e+01  6.1190303298703682e+01  6.1585084234924345e+01  6.0849051773833473e+01  4.5155544356239936e+01  3.5722492046651958e+01  4.7559721007475403e+01  6.8497899044942088e+01  5.1265457937548817e+01  5.0710495777676329e+01  3.6599687154731043e+01  3.7600246220420729e+01  3.7708842156417084e+01  3.8925264712928325e+01  3.8241857383458552e+01  3.7229405867845699e+01  5.0986165268120722e+01  4.9947775240340164e+01  5.0035207636442848e+01  6.1397995707063075e+01  6.1926915557800640e+01  3.7862903700036398e+01  3.8667059869781390e+01  4.1547340329593077e+01  4.2048208592993788e+01  4.6543121420047704e+01  4.0343936850366958e+01  4.0406850181294942e+01  3.9626657673264859e+01  4.7678950477404570e+01  7.5130069008239857e+01  5.2197316713170800e+01  5.4092016531517196e+01  5.3040264327063639e+01  6.7759428331625315e+01  6.8422808252512283e+01  6.7120590731326644e+01  5.1481866420980850e+01  5.3533290005721284e+01  5.1678686038037924e+01  4.5090848562947777e+01  5.5670309237398250e+01  5.5237560654793164e+01  3.8270854587277526e+01  3.7756567267615594e+01  6.4903906915274220e+01  6.4596312229161171e+01  6.5611892240801538e+01  3.8278709566355289e+01  3.6087191949334766e+01  </DataArray> 
</PointData> 
</Piece>
</UnstructuredGrid>
</VTKFile>