<?xml version="1.0"?>
<VTKFile type="UnstructuredGrid"  version="0.1"  >
<UnstructuredGrid>
<Piece  NumberOfPoints="784" NumberOfCells="1320">
<Points>
<DataArray  type="Float64"  NumberOfComponents="3"  format="ascii">266913.131276 586512.314988 0  266738.13716 587762.325998 0  266363.132677 589012.328643 0  266175.641078 590169.601714 0  265666.575631 591040.7699119999 0  264875.64001 591687.766419 0  264900.636161 591845.049083 0  266088.14152 592012.3229499999 0  265561.959259 592661.17101 0  264288.136855 593037.368683 0  263865.194033 593999.8486949999 0  263850.641856 593236.729596 0  263625.634872 592756.525286 0  262689.574249 593299.848918 0  262475.636737 594003.0907310001 0  261934.554452 594340.929792 0  261725.631329 594932.094409 0  261729.256443 595728.498809 0  262138.136044 595012.330523 0  262288.141035 596262.333669 0  261488.994028 597511.480605 0  261234.15567 598316.338928 0  260815.635063 599014.863821 0  261400.643658 599389.7367680001 0  261322.963374 600022.185065 0  261119.455248 600931.061306 0  261607.436504 601293.0629359999 0  260807.446929 602089.899812 0  260025.642878 602988.868697 0  259613.135827 603937.3854499999 0  259050.643123 604100.987861 0  258411.880065 603988.6335979999 0  257764.357469 604449.872569 0  257971.239668 605320.429125 0  258041.396867 605740.635381 0  257188.143339 606987.394312 0  256038.141198 608112.3554550001 0  254788.141633 609087.4026939999 0  253588.140656 609812.362881 0  252338.135706 609737.4048949999 0  251088.138116 609787.404055 0  249963.12851 610287.399466 0  248613.130524 610462.365857 0  247363.132198 610687.407659 0  246113.130532 610837.411551 0  245832.347438 610918.209918 0  245016.946433 610958.5639439999 0  244313.129646 610762.372259 0  244400.622144 611378.093316 0  243939.669208 612460.8930899999 0  242960.649733 611984.892792 0  242170.381438 611919.647351 0  241888.122919 611112.375656 0  241393.380757 610467.6456149999 0  240594.157528 611306.369822 0  240525.621947 610804.648112 0  240363.123632 610512.3745050001 0  239113.123247 610262.374278 0  239813.12126 609037.412459 0  240588.122952 607812.368199 0  241013.119545 606625.9534560001 0  241454.373249 605724.888025 0  242238.120107 604687.3993 0  243088.121248 603462.362766 0  242860.319451 603007.3932640001 0  241563.116617 603812.361344 0  241778.400913 604327.642217 0  242059.837234 604824.879102 0  241475.620201 604923.2402390001 0  241462.182234 605449.881372 0  240906.219606 605674.888222 0  240241.856192 606891.125066 0  239891.734044 607841.012479 0  239048.653431 608724.889805 0  238118.054545 608974.895967 0  238888.111029 607337.406468 0  239738.119992 606212.362729 0  240288.12044 605687.4075229999 0  240380.212307 604729.521696 0  239347.309632 604603.204501 0  238888.112036 604387.408787 0  237913.11173 604687.401386 0  236784.172023 604499.882783 0  236883.408793 603717.08334 0  236154.933927 603595.565605 0  235688.103943 602912.369264 0  235763.108033 601662.366516 0  236363.110805 600412.35884 0  236738.107995 599162.356577 0  236525.607944 598482.2412899999 0  236138.109208 599362.357613 0  235725.063048 600325.4466510001 0  235091.948926 601408.5220979999 0  235188.10921 600312.366344 0  234375.602405 600833.9674270001 0  234663.109308 599912.358011 0  234138.105122 600062.365644 0  233955.307245 599029.561063 0  233338.103791 598387.401556 0  233988.09795 597862.356384 0  235138.101489 596637.3947750001 0  235563.1039 595387.392428 0  236513.103639 594212.356312 0  237163.10684 592987.3929869999 0  238313.103031 591862.3515540001 0  239513.107028 590812.3512640001 0  240638.102135 589787.387271 0  241463.109549 588587.378486 0  242294.489816 587443.735215 0  242913.101099 586512.341804 0  243544.066915 585474.859604 0  243040.448415 585184.975583 0  242438.10214 585337.38015 0  241313.102353 586562.339499 0  240538.107104 587787.382449 0  240114.641085 588588.939407 0  239388.100256 589437.382238 0  238188.104456 590512.346358 0  236938.100507 591362.349798 0  235813.10453 592537.396388 0  234864.502938 593178.7753880001 0  234463.097651 592862.357267 0  235113.0965 591662.3545979999 0  235713.101522 590412.346099 0  235777.688431 589976.7582779999 0  234943.583145 590706.265132 0  234462.482256 591490.2841159999 0  233801.497784 592112.940187 0  233388.099101 591787.394208 0  234013.093099 590437.393065 0  234776.217248 587148.7548100001 0  235163.093726 586562.3486189999 0  235313.098918 585483.229012 0  235250.59732 584662.298153 0  235588.093896 583337.379493 0  236329.432041 582199.858992 0  237188.096234 581462.3349939999 0  237463.088521 580212.335511 0  238350.592558 579057.652616 0  238591.415797 578574.847681 0  238313.094106 577612.328905 0  239229.696732 577695.769664 0  240195.161018 577513.008613 0  240614.996733 577149.8518770001 0  240663.091715 577412.332622 0  240288.092486 578662.334085 0  239942.357258 579508.095811 0  240438.100019 580212.3334220001 0  241338.095553 580387.375355 0  241238.099828 579137.369157 0  241788.097003 577887.370889 0  241983.554649 577241.9220939999 0  242054.178239 576927.8105029999 0  242588.100699 575737.366175 0  243149.324833 574898.583978 0  243695.278626 573919.517981 0  244268.494418 573724.8454239999 0  244995.134063 573930.2767810001 0  245417.314363 573391.601898 0  243450.599125 571859.479773 0  245776.797908 572599.8353060001 0  246779.639852 572973.285167 0  248034.741935 573186.082054 0  249413.10651 573162.3205520001 0  250496.922226 573271.1521899999 0  251613.105126 573237.3551319999 0  252421.824577 572846.032906 0  253256.245022 572580.4733130001 0  253739.471933 571960.9547369999 0  254174.511864 572149.8346569999 0  254484.944333 571684.194807 0  254384.108649 570891.346712 0  254344.002752 570218.26407 0  255025.609604 570829.0294979999 0  255715.005913 570489.264586 0  256218.846343 570774.828355 0  256834.349083 570508.5908 0  257390.092515 570014.308325 0  257624.431042 568493.478911 0  259355.811717 569380.021819 0  260033.372814 569617.066669 0  262679.741751 570320.699974 0  263289.115756 569524.817815 0  263463.114338 570512.301061 0  264638.198419 570687.3443539999 0  265058.220065 571334.378467 0  265447.561421 572077.90485 0  265488.125257 573137.3446020001 0  265131.937715 573963.293593 0  265432.389648 575093.068786 0  265638.122314 576338.029955 0  265750.630817 577371.8281319999 0  265738.570663 578561.9098850001 0  265875.630866 579139.630549 0  266213.129247 579862.311842 0  266563.130472 581112.314509 0  266238.135356 582362.310259 0  265938.12863 583612.320897 0  265738.131342 584762.3210189999 0  266875.638633 585365.358768 0  264018.7239399826 593650.4646671159 0  262236.3944351029 595831.1252656333 0  241846.246678 605206.1436625 0  240200.622106 608424.8903290001 0  240943.4862974102 610939.7757535663 0  236550.6094 599787.3577085 0  238528.1212051503 608102.9081793013 0  244413.4891967989 572609.5960859474 0  236382.0474488751 598808.3067022427 0  235369.601910944 600933.5380148316 0  235413.099011 591037.3503485 0  235446.2251831186 590266.6553871984 0  240475.5921005 578037.3333535 0  240413.173949154 577324.4280286073 0  240574.037899 606283.0066440001 0  263857.9179445 593618.2891454998 0  264153.4303974913 593343.916675058 0  242042.1833925 604946.7714812499 0  241650.3099635 605465.51584375 0  244613.6985165 572229.6575395 0  236631.8579695 598822.2989335 0  235140.029068 600860.444221 0  241767.7287175 604874.0596705 0  242140.15174975 604817.0853906251 0  234781.8558075 600573.1668855001 0  242091.167571125 604881.9284359375 0  234519.3558565 600373.162719 0  254604.8337712102 583989.0014118921 0  250699.5846056537 594617.3297041012 0  250540.4796469513 602258.2940568649 0  248483.7490186612 580334.7345534252 0  258549.2190328319 577893.951823392 0  257067.0067473103 590016.5327808241 0  243285.0921999099 596333.923437875 0  248333.1386145258 589098.0389905117 0  256142.8445072741 595883.3911551933 0  260245.1368072523 583315.2785712298 0  253472.3380211276 578932.2908163272 0  246432.3347504817 599884.5019511909 0  261555.9240922556 588041.186709004 0  247293.1100123104 605823.8307887657 0  246458.2798550911 593168.8646574575 0  252840.0183145193 588226.5564648228 0  249828.2874404451 584740.7888937403 0  255409.5660975206 600458.8956828594 0  260819.9733392385 574219.403683011 0  252584.2262054711 605722.6603825617 0  254049.8830611471 592547.4852571967 0  250015.4356193061 598425.2225922942 0  245872.072249477 577604.9761853142 0  262002.1583249522 579753.4663046852 0  257732.6630933878 586227.970805314 0  250242.5556457866 577017.3316409125 0  244921.6453001869 581816.6358421432 0  256520.3890639471 580904.824006648 0  240779.0970645865 599524.6679555867 0  257100.1829219198 574459.5922545703 0  239912.2630002034 595231.1172704464 0  244703.0875078634 590068.6945953515 0  242549.5490268674 592874.3693043783 0  251586.0465921376 581796.2215047925 0  246643.189997516 596527.447801719 0  251049.7658069622 591057.6752245198 0  253014.5731561695 596998.6601086652 0  238680.2197353724 584542.2309791476 0  259715.365803504 591937.1938619445 0  254097.157218761 575731.4494927844 0  246806.6408589328 586139.0877599345 0  246136.1179750556 602959.471719323 0  253520.7033332401 602835.180253843 0  244125.4295793909 607538.9817227355 0  252546.8895354472 599881.3279113505 0  258289.0983523553 600397.640191779 0  247518.7952199645 583037.3718217331 0  263140.3959879661 582529.2228421422 0  262894.8586894067 585442.3590432997 0  256968.6320599076 593040.7691844478 0  243573.0187527719 600218.2795730785 0  258888.5766127351 595139.7745218446 0  262588.7569809347 576734.8569237856 0  259318.4257992262 580601.2540325444 0  249963.3812725965 607065.7205847671 0  257494.5307999607 583482.5893534871 0  258906.4757205145 572278.8089438241 0  237751.446593475 587300.5805003279 0  255142.4708720699 604956.7580261135 0  258485.4978753244 597756.9250383095 0  255516.7820591553 587791.39641967 0  239758.4692108706 601926.8203218657 0  255873.0092222999 577739.5085867504
[...]
<PointData  Scalars="f_32-1"> 
<DataArray  type="Float64"  Name="f_32-1"  format="ascii">4.2059114232131122e+01  4.3320525597510652e+01  4.5325097625481810e+01  4.7046842405471700e+01  4.8374497696003004e+01  5.0456634057681441e+01  5.1079706774356112e+01  5.1529251603559779e+01  5.1544405065846554e+01  5.2069310267012760e+01  5.2372390259999385e+01  5.2277661869765915e+01  5.2641521548097991e+01  5.5358716603048379e+01  5.6790584872705146e+01  5.8130509996144625e+01  5.9674555484623767e+01  6.1110494314531095e+01  6.1081035423989491e+01  6.1478080621864343e+01  6.3610730254872813e+01  6.5349137919273531e+01  6.7285130638816099e+01  6.8303511192069038e+01  6.8824433963319450e+01  7.0066436122401498e+01  7.0428405769552114e+01  7.1100434168231530e+01  7.2373125095192776e+01  7.3157835634829297e+01  7.3358057636235912e+01  7.3863639888998065e+01  7.5087909495668782e+01  7.6052839760537367e+01  7.6231127172408563e+01  7.7144148515853956e+01  7.8375945577975344e+01  7.9656881563505536e+01  8.0571141472684459e+01  8.1379357079555916e+01  8.2584410308747209e+01  8.3711713226126562e+01  8.4737030335474870e+01  8.5642758023651183e+01  8.6454431685731038e+01  8.6626243879078203e+01  8.7065972508894717e+01  8.7622784209080564e+01  8.8049476806877635e+01  8.8242955994971183e+01  8.8280854632798636e+01  8.8317979705489606e+01  8.8307155794725475e+01  8.8390325621184090e+01  8.8582384470971760e+01  8.8567809053903503e+01  8.8570675908363597e+01  8.8648173739591002e+01  8.8440621370096125e+01  8.7754045512476466e+01  8.6946724411592996e+01  8.6271165771023931e+01  8.5176746220705624e+01  8.3409171718707626e+01  8.3242181608162099e+01  8.5483605567426352e+01  8.6077309293925993e+01  8.6216432905560879e+01  8.6367701068723889e+01  8.6585516066111140e+01  8.6869202804464777e+01  8.7900146144399542e+01  8.8271589458191130e+01  8.8470158422012432e+01  8.8513112527528193e+01  8.8295893705491736e+01  8.7738856560689314e+01  8.7151069696519542e+01  8.6497942314771436e+01  8.6791323953277015e+01  8.7069933991858250e+01  8.7489396538817218e+01  8.7624552451284103e+01  8.7609776075894459e+01  8.7649003987844367e+01  8.7613034355261320e+01  8.7312185770877605e+01  8.6389743776750336e+01  8.4924301919805330e+01  8.4727428859061959e+01  8.6166104436028505e+01  8.6799193493495110e+01  8.6997533616355824e+01  8.6840889214147921e+01  8.6920652230369697e+01  8.6758358521953824e+01  8.6735170516568090e+01  8.6516968495490261e+01  8.6415850521075384e+01  8.6134562957244441e+01  8.3907956675821595e+01  8.1564768467926370e+01  7.8618009875939649e+01  7.5828679418836884e+01  7.3151329083641869e+01  7.0783048620640926e+01  6.8802422020644585e+01  6.6989544709417004e+01  6.5107838194567634e+01  6.3504400339142734e+01  6.1552304045500790e+01  6.0540968665835891e+01  6.0775027557005622e+01  6.4108075002714401e+01  6.6766687137715536e+01  6.7825485895977764e+01  6.8879330462724965e+01  7.0630091793885725e+01  7.2802923147729970e+01  7.5074776156891190e+01  7.5682525484554148e+01  7.5688842123092385e+01  7.4767641207258080e+01  7.2839958062896528e+01  7.2439442445076196e+01  7.4201862474836247e+01  7.5376196707306917e+01  7.5771731355618130e+01  7.5774543714482121e+01  7.4528597547722995e+01  7.0190646746085562e+01  6.9453647635656054e+01  6.8334429513644082e+01  6.7716641164928987e+01  6.6795364562926181e+01  6.5700271632556124e+01  6.4357378768016261e+01  6.3052689874007690e+01  6.1943037876587667e+01  6.1490719583065335e+01  6.1213865538141071e+01  6.1152428791205864e+01  6.0936295271680429e+01  6.0869301975087062e+01  6.0877311679631561e+01  6.1214842600888517e+01  6.1775678216635825e+01  6.1855629048535249e+01  6.0633633296324312e+01  5.9132004284356050e+01  5.7845321339146011e+01  5.7082142799226688e+01  5.6756044405955741e+01  5.5262470166350333e+01  5.3990159140527233e+01  5.2848156801446066e+01  5.2490969840415872e+01  5.1371995230883655e+01  4.9880706500601448e+01  4.9726699239138696e+01  4.9425419157089713e+01  4.8663505921257226e+01  4.6628715026598570e+01  4.4157745705345633e+01  4.2769976650433513e+01  4.1233504899105448e+01  3.9848244722731003e+01  3.8663703552824430e+01  3.7820405378163933e+01  3.7553299034684265e+01  3.6568558310455550e+01  3.5933592384528716e+01  3.5881006242489967e+01  3.5778120866908019e+01  3.5317811247750377e+01  3.4861050611320870e+01  3.3862812880930193e+01  3.2878178975735260e+01  3.2669357450320170e+01  3.1889310845274725e+01  3.1818541488075368e+01  3.3467007472250813e+01  3.3696824139627523e+01  3.3600285252358013e+01  3.3395252565184698e+01  3.3143041155602958e+01  3.2880304864967393e+01  3.2895627982061214e+01  3.3339006916395370e+01  3.4076201425774308e+01  3.4882996500859704e+01  3.5633103770158705e+01  3.6667568857409279e+01  3.7220969927630883e+01  3.7821366462492939e+01  3.9036923471129654e+01  4.0571902005747873e+01  4.1781502020290091e+01  4.1837412645323731e+01  4.1556473380177323e+01  5.2345267440183612e+01  6.1262333458417267e+01  8.5780022426785223e+01  8.8163757877868207e+01  8.8558467437565881e+01  8.5685276049824822e+01  8.8452694112072280e+01  4.9635860528723562e+01  8.5449007852798374e+01  8.6958644370377627e+01  7.3847165190971538e+01  7.3105172196344611e+01  6.0986544248354448e+01  6.0883098829734294e+01  8.7461648811408622e+01  5.2345109571022121e+01  5.2276886800836046e+01  8.5492315333463608e+01  8.6043770298975531e+01  4.9635790807016924e+01  8.4609605025016890e+01  8.6958726311972768e+01  8.6241792590611524e+01  8.5338922933519882e+01  8.6890166404628388e+01  8.5416580583567423e+01  8.6889360222578773e+01  4.8334754466065192e+01  6.6730816595596792e+01  7.6150033352933761e+01  5.0384549797434069e+01  3.1038300451889747e+01  5.0626311700635569e+01  7.5721411587972199e+01  6.0730842897043104e+01  6.4729521181136619e+01  4.2411409639168625e+01  4.0030096307554011e+01  7.5609460058687290e+01  4.7284091198148154e+01  8.2715567764664399e+01  6.7810507601921870e+01  5.2241070004550984e+01  5.7051478268108546e+01  6.8495628968172852e+01  3.4025895099068840e+01  7.8756732891509373e+01  6.1760251724461995e+01  7.0451505860329576e+01  5.2036236876621636e+01  3.4606481871370612e+01  4.4172795731907478e+01  4.4155900333988669e+01  5.7430492440152634e+01  4.3145906409443839e+01  8.1950786200767354e+01  3.6841497931464993e+01  7.6590160801722661e+01  6.4028233241551760e+01  7.0725605491896516e+01  5.1282052537456046e+01  7.2879192239400808e+01  6.0386479870857151e+01  6.7411354244973694e+01  6.5281344048003007e+01  5.6152908487585975e+01  3.6660276349531145e+01  5.9779752391510378e+01  8.0211742168076199e+01  7.5000641485978662e+01  8.6186371823227475e+01  7.0851744021080904e+01  6.9833272206018009e+01  5.6546603256100781e+01  3.9393897825944002e+01  4.2598548375139970e+01  5.9380945163707430e+01  7.9813569187101280e+01  6.1766341715983074e+01  3.5165221243266458e+01  3.8769474528319300e+01  8.1862089441549017e+01  4.4723275989292929e+01  3.3110991418532585e+01  6.8479672650298014e+01  7.6566629954594234e+01  6.5824782233313670e+01  4.4334960338534046e+01  8.5593740569269855e+01  3.5045446849235354e+01  5.1549229383569227e+01  6.0019355583966437e+01  6.5467230964680112e+01  5.6661236613977451e+01  4.7431058963575246e+01  4.4446249644360918e+01  5.4698397267363717e+01  4.7564120159304842e+01  4.7843969189944815e+01  4.5236522330513502e+01  4.8593974538744128e+01  8.5206381386757457e+01  7.9222846329646742e+01  5.3282669338345123e+01  8.3801872904931244e+01  7.6384376682258107e+01  7.3757178162190201e+01  8.1281253274541456e+01  6.3093220929854262e+01  5.9532738087705447e+01  6.5539318071012033e+01  7.2701298212822451e+01  5.7903797416112525e+01  7.8709223599010954e+01  4.7575412553922554e+01  6.5840532359318274e+01  3.3203048391231185e+01  4.8112575631467600e+01  6.9186353577596947e+01  7.8304574517257578e+01  6.2953260091231080e+01  7.1528119957198044e+01  6.1892490629179903e+01  7.2602532168975031e+01  3.2926162969174136e+01  5.1714141662638042e+01  5.3898817935272653e+01  8.0438835173898525e+01  6.7542819472973136e+01  3.7437085239230541e+01  8.0001931773650853e+01  6.3853112428647570e+01  8.4764025046186049e+01  3.3990984450569719e+01  8.5469635208580129e+01  8.5389737715659678e+01  5.5651644004754395e+01  5.1440364254599331e+01  8.5458738574433170e+01  8.6417378869983025e+01  8.3562358379262761e+01  8.5562520019627996e+01  7.2083275098060639e+01  3.6602193680484220e+01  8.1372989714211400e+01  7.6563248057267685e+01  5.6554205362778355e+01  5.1019469230521089e+01  4.8030762032608550e+01  8.6197187158353159e+01  8.5379666330317917e+01  5.9208016918760627e+01  8.6409286728565291e+01  8.4370548035503191e+01  8.4881143213854443e+01  8.6543959497274358e+01  5.9942821467938927e+01  4.9554533380449783e+01  7.1947459170579450e+01  3.4747303859030787e+01  4.9715054381362371e+01  3.7009816720858147e+01  6.9918250646811828e+01  8.7955643010831167e+01  6.7276410684506601e+01  7.3248727400622045e+01  8.4001951854577868e+01  5.9965397834875482e+01  3.1855485475553422e+01  7.2607637005321322e+01  3.9084689991614745e+01  5.2928423105262340e+01  8.5358257783482571e+01  8.3419471212936074e+01  6.2702857564968312e+01  8.7955280347413478e+01  4.3563628671870859e+01  8.5899291421525547e+01  6.4650098475048409e+01  3.3132409559428787e+01  3.6739118290387260e+01  3.7451869654118305e+01  7.2960037850780481e+01  8.2474305139423947e+01  8.1846345572432739e+01  6.9273070050806083e+01  8.5922562462329921e+01  6.0854358028170338e+01  4.9579076194289051e+01  4.9566873750373169e+01  3.3155806421340394e+01  8.5455171900147548e+01  8.5639012996338607e+01  8.5712211448485789e+01  7.6293028936616480e+01  8.2216685065821423e+01  8.5712117684727772e+01  8.4152195426516684e+01  6.7595344879131744e+01  8.8514333675380044e+01  8.8467747821218836e+01  6.1651607238657554e+01  3.5577983340016978e+01  6.1717155975125799e+01  8.2684014943955518e+01  5.6700190148770055e+01  6.5195528677251076e+01  8.8123350334042584e+01  6.1921997557240481e+01  7.3951202140606483e+01  4.1637188575430422e+01  5.6816125856770732e+01  5.6028392970241946e+01  5.7446209538661073e+01  8.6330591267578384e+01  5.0864660002417345e+01  5.1656192682067385e+01  4.9980183060623645e+01  5.1537115190419755e+01  4.7992240832519172e+01  3.3297295109228472e+01  3.2114750322406067e+01  5.2901198360159206e+01  5.5410639019968656e+01  7.5492788470721365e+01  7.5431800932944242e+01  8.8339901033024276e+01  6.7483089091524235e+01  6.5000466329879913e+01  6.0916868184108530e+01  6.0537246128075552e+01  6.0550403595390613e+01  6.0488534000652471e+01  6.0370190475966943e+01  6.0205287961744844e+01  6.2247698638550432e+01  6.0322497187783263e+01  6.1033835263202590e+01  6.4358969987562105e+01  6.2514411109314665e+01  5.9003944897335685e+01  6.0551609299205637e+01  4.5244226415660108e+01  4.6906778052301235e+01  4.4896208668943729e+01  4.3438285160598603e+01  4.3773788626639174e+01  4.2020379427356474e+01  4.3003308471402811e+01  4.2318940056199168e+01  3.9178522110625238e+01  3.8005272168632217e+01  3.4722251246204301e+01  3.5253884256084262e+01  3.5158166019328299e+01  3.6078112018615705e+01  3.5535317324203213e+01  3.6963239931760022e+01  3.6870991210393690e+01  3.6021326242080725e+01  3.7567397948936630e+01  3.7105742904160067e+01  3.7891482064772326e+01  3.7415295940161236e+01  3.8489019651623650e+01  4.0506176791369469e+01  3.9172856540910871e+01  4.3212715068244407e+01  4.6640718356506369e+01  4.5510663265184306e+01  4.8150211120300654e+01  6.7863334743045911e+01  6.7056678237089926e+01  6.6351573579591687e+01  6.7732759844891106e+01  7.3980143216006084e+01  7.7778038464692841e+01  7.5003118557243880e+01  7.7284049678222246e+01  5.3450093581147385e+01  4.9520834153113384e+01  4.8784762773111773e+01  5.0086959995022283e+01  3.3226212558476021e+01  3.6080136529482509e+01  3.4299178381521294e+01  3.4512069215718938e+01  3.2027686162620888e+01  3.1647486350982700e+01  5.4195568424700141e+01  5.5214714423974740e+01  4.7244753518985590e+01  5.1746790001318764e+01  4.9271213809736061e+01  7.6179337570221719e+01  7.3272426884469454e+01  6.0180615255432073e+01  5.9999445031282839e+01  6.2417246112440672e+01  5.9608674862500600e+01  6.1679384134848981e+01  6.0486394304993830e+01  6.3622888530491068e+01  6.6107062641728305e+01  6.5403923707995119e+01  3.7058604047560458e+01  4.0061900438615069e+01  4.2593539391637854e+01  4.0690086618584402e+01  4.0889508265157119e+01  4.2484812988056667e+01  4.6882361213690722e+01  3.5411317734734325e+01  3.7553557570516269e+01  4.4525440710760456e+01  4.3906815136866676e+01  7.2657485607905897e+01  7.7691203929195026e+01  7.4246820175915303e+01  7.8570423325898389e+01  8.1598403231326628e+01  7.0828405643125365e+01  6.5314558844585051e+01  6.9654050463757358e+01  6.7450084438031183e+01  4.7812695744789018e+01  5.3166765779987607e+01  5.5262464565235334e+01  4.8830405017143754e+01  7.1966032033229141e+01  6.8792756434851981e+01  6.9272331756316490e+01  6.6190088101067815e+01  3.5159425615450211e+01  3.4209365429840844e+01  6.1566707692208936e+01  6.0142935035869591e+01  5.8670095454701759e+01  7.1263757602688628e+01  6.8780472481297735e+01  7.2255314299384338e+01  6.9243045355265807e+01  5.4169866843105758e+01  5.0232371758854683e+01  4.9909210664606604e+01  5.1615051635458890e+01  5.1144432953275576e+01  5.2952052946271266e+01  3.5897688975376262e+01  3.5517928640987897e+01  3.5403059359186976e+01  3.3535923111075967e+01  3.5782951246005773e+01  3.6167873213842284e+01  4.4160141226048133e+01  4.2531902359249791e+01  4.5980517334189209e+01  4.2441016283507274e+01  3.8120610214647073e+01  4.5402479102390664e+01  4.5892871758424796e+01  4.6596893436321309e+01  4.0272672375875779e+01  4.3714901361474340e+01  5.6879860831051040e+01  5.9158745643165197e+01  5.6726060393758395e+01  5.4964890397664476e+01  4.0957694677013066e+01  4.4621704397355835e+01  3.8260680538397523e+01  4.5363267307428501e+01  3.7124148300032559e+01  3.5414984875598208e+01  3.5727293209763431e+01  3.4572434321983714e+01  3.6794872523656444e+01  3.6053700271928648e+01  3.7220748261430572e+01  6.2923227764454261e+01  6.2790932976432316e+01  6.5618637275594395e+01  6.5994582084607387e+01  7.1081502301882793e+01  4.9387526531768877e+01  4.9614390810792081e+01  7.1013904208695777e+01  6.2898826122984218e+01  5.8941416163223543e+01  5.8202185567420962e+01  6.2194007691842046e+01  6.8544218680596757e+01  6.6503402184585312e+01  6.4041099115378628e+01  6.3654535372186722e+01  5.7592483592589836e+01  5.2683591487519749e+01  3.6118438595742454e+01  3.7515257667882238e+01  3.7373527366775939e+01  5.9413953521591701e+01  6.0589514717237726e+01  7.6657755423488211e+01  7.9305037337237081e+01  7.2889619953194881e+01  7.7252493813895398e+01  7.3516827987601175e+01  7.3132743433534344e+01  6.7163308296988603e+01  6.7103085371209602e+01  5.3882849032317189e+01  3.7934807715226988e+01  5.6501972958156742e+01  5.9498192861907810e+01  3.3893626784024157e+01  3.6212875034720760e+01  3.5532450374801378e+01  4.2870180092442460e+01  4.4931248575336021e+01  4.9254011378935324e+01  4.5152452726030319e+01  4.4636739325861122e+01  5.0977464404142857e+01  5.9677088227567772e+01  5.9890870079970782e+01  6.0802384662179470e+01  6.0680059688529916e+01  6.4422964512733301e+01  6.4447838659951771e+01  5.4390164303837942e+01  5.0747596381565955e+01  4.7627514677990042e+01  5.1039810317250812e+01  4.8095305463246888e+01  4.5558159697418560e+01  4.7013161461005772e+01  5.5453261888542329e+01  5.1336872157913433e+01  7.6147386316058800e+01  5.2993658253537689e+01  4.9606512005561960e+01  6.1463328194091268e+01  6.4886896525222141e+01  6.9539618316989575e+01  6.7345483079113535e+01  3.7261001978896196e+01  3.4739252789111056e+01  3.7117543421170332e+01  5.9902614450784917e+01  3.6277601788793909e+01  6.0611445289273540e+01  4.1241242386842359e+01  3.8010316981425575e+01  6.1665249521625682e+01  4.5209513668836884e+01  6.7754483434682996e+01  3.1840152738845585e+01  3.2280374883377000e+01  3.2142173951068003e+01  3.1227346289414488e+01  3.2612529852487334e+01  6.0956898437179632e+01  3.9757206589330956e+01  4.3697510509325348e+01  4.1790502427150329e+01  7.5853593742534628e+01  5.7379413032845797e+01  5.0031182650212422e+01  5.0351361738366400e+01  5.2157126533928654e+01  3.4383033855418589e+01  6.8997201448944253e+01  6.9593876310560617e+01  3.4786779371542416e+01  3.4801414633094851e+01  4.2861244293117302e+01  4.2476336233087196e+01  4.1137227025346306e+01  5.5915036085471904e+01  6.0017880519709372e+01  6.1588704489135218e+01  5.8930761887638944e+01  6.2418960877741064e+01  3.6510778644434055e+01  3.7045898831382445e+01  3.6989693688620569e+01  3.7101354399177922e+01  6.8910681007146877e+01  3.7093722207755910e+01  3.9973393367542862e+01  4.1066947136926551e+01  4.5611115915924465e+01  4.5864815685959179e+01  4.6561818036871237e+01  4.4155978767845085e+01  3.6291952681050383e+01  3.5107796616720577e+01  3.5782541736807651e+01  4.7009980285388728e+01  7.3048516421981034e+01  7.3858208428121287e+01  7.5030107509545417e+01  6.2582416733718098e+01  6.6031783000725426e+01  5.0201777589032481e+01  4.8322427020130185e+01  4.7710221598165134e+01  4.8894255421497789e+01  6.3743597307077110e+01  6.0939141916198480e+01  6.1592286089069546e+01  3.1996857586541363e+01  3.2269438434031024e+01  3.3450887597580035e+01  5.1536633280550156e+01  5.3267060865454610e+01  5.2399828621240921e+01  5.0359378343413773e+01  6.6207118861863037e+01  3.6566427334014101e+01  3.6532242953960498e+01  3.6680266905622595e+01  6.0356881456809170e+01  6.0161728709544086e+01  6.0194182435874495e+01  4.2155806373566620e+01  4.3595989481450566e+01  4.4499637812248992e+01  3.7322537603704646e+01  3.5796320547909879e+01  3.5955698700482060e+01  6.1376856897620392e+01  6.2967389571782491e+01  6.2050607162424853e+01  6.1226960972730623e+01  6.1207005649434549e+01  6.1730130888918055e+01  6.0779675174089775e+01  4.5133099248411256e+01  3.6172435055019399e+01  4.2701931645576018e+01  6.8457222993911742e+01  4.9434178992157520e+01  4.9054600340805735e+01  3.1681601606865698e+01  3.2722495770348516e+01  3.5764013444947096e+01  3.8009211050902181e+01  3.3905200488798677e+01  3.3977539499437086e+01  4.7870604413977645e+01  4.5861827801543676e+01  4.7202725035937227e+01  6.1283683102931988e+01  6.0936996688984358e+01  3.5879847140209748e+01  3.7645579481523924e+01  3.6914498360311960e+01  3.8805949187502691e+01  4.5463806548549407e+01  3.5769525782245083e+01  3.8002958515644636e+01  3.6180552428580135e+01  4.7176736251350555e+01  7.5319990807036646e+01  4.8343541613731290e+01  5.1215085682250582e+01  5.0936668020663433e+01  6.7087358068626273e+01  6.7775540289898146e+01  6.6322878188259381e+01  5.0669971161828066e+01  5.2874364253011308e+01  5.0443373786711433e+01  4.4611059223680840e+01  5.4279796994621641e+01  5.4472614097255629e+01  3.6550204514294805e+01  3.7290915930171778e+01  6.4178787148836122e+01  6.3802294912968769e+01  6.5156887587837417e+01  3.7377010899210021e+01  3.6223559568888057e+01  </DataArray> 
</PointData> 
</Piece>
</UnstructuredGrid>
</VTKFile>