<?xml version="1.0"?>
<VTKFile type="UnstructuredGrid"  version="0.1"  >
<UnstructuredGrid>
<Piece  NumberOfPoints="784" NumberOfCells="1320">
<Points>
<DataArray  type="Float64"  NumberOfComponents="3"  format="ascii">266913.131276 586512.314988 0  266738.13716 587762.325998 0  266363.132677 589012.328643 0  266175.641078 590169.601714 0  265666.575631 591040.7699119999 0  264875.64001 591687.766419 0  264900.636161 591845.049083 0  266088.14152 592012.3229499999 0  265561.959259 592661.17101 0  264288.136855 593037.368683 0  263865.194033 593999.8486949999 0  263850.641856 593236.729596 0  263625.634872 592756.525286 0  262689.574249 593299.848918 0  262475.636737 594003.0907310001 0  261934.554452 594340.929792 0  261725.631329 594932.094409 0  261729.256443 595728.498809 0  262138.136044 595012.330523 0  262288.141035 596262.333669 0  261488.994028 597511.480605 0  261234.15567 598316.338928 0  260815.635063 599014.863821 0  261400.643658 599389.7367680001 0  261322.963374 600022.185065 0  261119.455248 600931.061306 0  261607.436504 601293.0629359999 0  260807.446929 602089.899812 0  260025.642878 602988.868697 0  259613.135827 603937.3854499999 0  259050.643123 604100.987861 0  258411.880065 603988.6335979999 0  257764.357469 604449.872569 0  257971.239668 605320.429125 0  258041.396867 605740.635381 0  257188.143339 606987.394312 0  256038.141198 608112.3554550001 0  254788.141633 609087.4026939999 0  253588.140656 609812.362881 0  252338.135706 609737.4048949999 0  251088.138116 609787.404055 0  249963.12851 610287.399466 0  248613.130524 610462.365857 0  247363.132198 610687.407659 0  246113.130532 610837.411551 0  245832.347438 610918.209918 0  245016.946433 610958.5639439999 0  244313.129646 610762.372259 0  244400.622144 611378.093316 0  243939.669208 612460.8930899999 0  242960.649733 611984.892792 0  242170.381438 611919.647351 0  241888.122919 611112.375656 0  241393.380757 610467.6456149999 0  240594.157528 611306.369822 0  240525.621947 610804.648112 0  240363.123632 610512.3745050001 0  239113.123247 610262.374278 0  239813.12126 609037.412459 0  240588.122952 607812.368199 0  241013.119545 606625.9534560001 0  241454.373249 605724.888025 0  242238.120107 604687.3993 0  243088.121248 603462.362766 0  242860.319451 603007.3932640001 0  241563.116617 603812.361344 0  241778.400913 604327.642217 0  242059.837234 604824.879102 0  241475.620201 604923.2402390001 0  241462.182234 605449.881372 0  240906.219606 605674.888222 0  240241.856192 606891.125066 0  239891.734044 607841.012479 0  239048.653431 608724.889805 0  238118.054545 608974.895967 0  238888.111029 607337.406468 0  239738.119992 606212.362729 0  240288.12044 605687.4075229999 0  240380.212307 604729.521696 0  239347.309632 604603.204501 0  238888.112036 604387.408787 0  237913.11173 604687.401386 0  236784.172023 604499.882783 0  236883.408793 603717.08334 0  236154.933927 603595.565605 0  235688.103943 602912.369264 0  235763.108033 601662.366516 0  236363.110805 600412.35884 0  236738.107995 599162.356577 0  236525.607944 598482.2412899999 0  236138.109208 599362.357613 0  235725.063048 600325.4466510001 0  235091.948926 601408.5220979999 0  235188.10921 600312.366344 0  234375.602405 600833.9674270001 0  234663.109308 599912.358011 0  234138.105122 600062.365644 0  233955.307245 599029.561063 0  233338.103791 598387.401556 0  233988.09795 597862.356384 0  235138.101489 596637.3947750001 0  235563.1039 595387.392428 0  236513.103639 594212.356312 0  237163.10684 592987.3929869999 0  238313.103031 591862.3515540001 0  239513.107028 590812.3512640001 0  240638.102135 589787.387271 0  241463.109549 588587.378486 0  242294.489816 587443.735215 0  242913.101099 586512.341804 0  243544.066915 585474.859604 0  243040.448415 585184.975583 0  242438.10214 585337.38015 0  241313.102353 586562.339499 0  240538.107104 587787.382449 0  240114.641085 588588.939407 0  239388.100256 589437.382238 0  238188.104456 590512.346358 0  236938.100507 591362.349798 0  235813.10453 592537.396388 0  234864.502938 593178.7753880001 0  234463.097651 592862.357267 0  235113.0965 591662.3545979999 0  235713.101522 590412.346099 0  235777.688431 589976.7582779999 0  234943.583145 590706.265132 0  234462.482256 591490.2841159999 0  233801.497784 592112.940187 0  233388.099101 591787.394208 0  234013.093099 590437.393065 0  234776.217248 587148.7548100001 0  235163.093726 586562.3486189999 0  235313.098918 585483.229012 0  235250.59732 584662.298153 0  235588.093896 583337.379493 0  236329.432041 582199.858992 0  237188.096234 581462.3349939999 0  237463.088521 580212.335511 0  238350.592558 579057.652616 0  238591.415797 578574.847681 0  238313.094106 577612.328905 0  239229.696732 577695.769664 0  240195.161018 577513.008613 0  240614.996733 577149.8518770001 0  240663.091715 577412.332622 0  240288.092486 578662.334085 0  239942.357258 579508.095811 0  240438.100019 580212.3334220001 0  241338.095553 580387.375355 0  241238.099828 579137.369157 0  241788.097003 577887.370889 0  241983.554649 577241.9220939999 0  242054.178239 576927.8105029999 0  242588.100699 575737.366175 0  243149.324833 574898.583978 0  243695.278626 573919.517981 0  244268.494418 573724.8454239999 0  244995.134063 573930.2767810001 0  245417.314363 573391.601898 0  243450.599125 571859.479773 0  245776.797908 572599.8353060001 0  246779.639852 572973.285167 0  248034.741935 573186.082054 0  249413.10651 573162.3205520001 0  250496.922226 573271.1521899999 0  251613.105126 573237.3551319999 0  252421.824577 572846.032906 0  253256.245022 572580.4733130001 0  253739.471933 571960.9547369999 0  254174.511864 572149.8346569999 0  254484.944333 571684.194807 0  254384.108649 570891.346712 0  254344.002752 570218.26407 0  255025.609604 570829.0294979999 0  255715.005913 570489.264586 0  256218.846343 570774.828355 0  256834.349083 570508.5908 0  257390.092515 570014.308325 0  257624.431042 568493.478911 0  259355.811717 569380.021819 0  260033.372814 569617.066669 0  262679.741751 570320.699974 0  263289.115756 569524.817815 0  263463.114338 570512.301061 0  264638.198419 570687.3443539999 0  265058.220065 571334.378467 0  265447.561421 572077.90485 0  265488.125257 573137.3446020001 0  265131.937715 573963.293593 0  265432.389648 575093.068786 0  265638.122314 576338.029955 0  265750.630817 577371.8281319999 0  265738.570663 578561.9098850001 0  265875.630866 579139.630549 0  266213.129247 579862.311842 0  266563.130472 581112.314509 0  266238.135356 582362.310259 0  265938.12863 583612.320897 0  265738.131342 584762.3210189999 0  266875.638633 585365.358768 0  264018.7239399826 593650.4646671159 0  262236.3944351029 595831.1252656333 0  241846.246678 605206.1436625 0  240200.622106 608424.8903290001 0  240943.4862974102 610939.7757535663 0  236550.6094 599787.3577085 0  238528.1212051503 608102.9081793013 0  244413.4891967989 572609.5960859474 0  236382.0474488751 598808.3067022427 0  235369.601910944 600933.5380148316 0  235413.099011 591037.3503485 0  235446.2251831186 590266.6553871984 0  240475.5921005 578037.3333535 0  240413.173949154 577324.4280286073 0  240574.037899 606283.0066440001 0  263857.9179445 593618.2891454998 0  264153.4303974913 593343.916675058 0  242042.1833925 604946.7714812499 0  241650.3099635 605465.51584375 0  244613.6985165 572229.6575395 0  236631.8579695 598822.2989335 0  235140.029068 600860.444221 0  241767.7287175 604874.0596705 0  242140.15174975 604817.0853906251 0  234781.8558075 600573.1668855001 0  242091.167571125 604881.9284359375 0  234519.3558565 600373.162719 0  254604.8337712102 583989.0014118921 0  250699.5846056537 594617.3297041012 0  250540.4796469513 602258.2940568649 0  248483.7490186612 580334.7345534252 0  258549.2190328319 577893.951823392 0  257067.0067473103 590016.5327808241 0  243285.0921999099 596333.923437875 0  248333.1386145258 589098.0389905117 0  256142.8445072741 595883.3911551933 0  260245.1368072523 583315.2785712298 0  253472.3380211276 578932.2908163272 0  246432.3347504817 599884.5019511909 0  261555.9240922556 588041.186709004 0  247293.1100123104 605823.8307887657 0  246458.2798550911 593168.8646574575 0  252840.0183145193 588226.5564648228 0  249828.2874404451 584740.7888937403 0  255409.5660975206 600458.8956828594 0  260819.9733392385 574219.403683011 0  252584.2262054711 605722.6603825617 0  254049.8830611471 592547.4852571967 0  250015.4356193061 598425.2225922942 0  245872.072249477 577604.9761853142 0  262002.1583249522 579753.4663046852 0  257732.6630933878 586227.970805314 0  250242.5556457866 577017.3316409125 0  244921.6453001869 581816.6358421432 0  256520.3890639471 580904.824006648 0  240779.0970645865 599524.6679555867 0  257100.1829219198 574459.5922545703 0  239912.2630002034 595231.1172704464 0  244703.0875078634 590068.6945953515 0  242549.5490268674 592874.3693043783 0  251586.0465921376 581796.2215047925 0  246643.189997516 596527.447801719 0  251049.7658069622 591057.6752245198 0  253014.5731561695 596998.6601086652 0  238680.2197353724 584542.2309791476 0  259715.365803504 591937.1938619445 0  254097.157218761 575731.4494927844 0  246806.6408589328 586139.0877599345 0  246136.1179750556 602959.471719323 0  253520.7033332401 602835.180253843 0  244125.4295793909 607538.9817227355 0  252546.8895354472 599881.3279113505 0  258289.0983523553 600397.640191779 0  247518.7952199645 583037.3718217331 0  263140.3959879661 582529.2228421422 0  262894.8586894067 585442.3590432997 0  256968.6320599076 593040.7691844478 0  243573.0187527719 600218.2795730785 0  258888.5766127351 595139.7745218446 0  262588.7569809347 576734.8569237856 0  259318.4257992262 580601.2540325444 0  249963.3812725965 607065.7205847671 0  257494.5307999607 583482.5893534871 0  258906.4757205145 572278.8089438241 0  237751.446593475 587300.5805003279 0  255142.4708720699 604956.7580261135 0  258485.4978753244 597756.9250383095 0  255516.7820591553 587791.39641967 0  239758.4692108706 601926.8203218657 0  255873.0092222999 577739.5085867504
[...]
<PointData  Scalars="f_24704-1"> 
<DataArray  type="Float64"  Name="f_24704-1"  format="ascii">4.0700716675816594e+01  4.2059979002870570e+01  4.4114005654686480e+01  4.6152578998366373e+01  4.7659784632822962e+01  4.9540603648351329e+01  5.0172451893853200e+01  5.0158046159008464e+01  5.0518104823347052e+01  5.1966753818597084e+01  5.2998793933446578e+01  5.2440771976785626e+01  5.2074869613202125e+01  5.4144078298782304e+01  5.5408688643269336e+01  5.6490972801282446e+01  5.7796084292928384e+01  5.9003264675927397e+01  5.8420084559499891e+01  5.9401285409198927e+01  6.2044636856916668e+01  6.3748739537137169e+01  6.5562476143562421e+01  6.6403892572447532e+01  6.7020434618582115e+01  6.8575656478934803e+01  6.8958172493013450e+01  6.9954008820238727e+01  7.1543381369946118e+01  7.2445442868690108e+01  7.2618372050355603e+01  7.2902794962858422e+01  7.3729408128728878e+01  7.4501808085012300e+01  7.4665401038822893e+01  7.5651799335107611e+01  7.6995548485920324e+01  7.8423858998148575e+01  7.9590911410517663e+01  8.0376288127828431e+01  8.1552671984797826e+01  8.2696559795537027e+01  8.3696945796187563e+01  8.4547985510432255e+01  8.5308812848408010e+01  8.5459513280329134e+01  8.5812473154477914e+01  8.6257779400244843e+01  8.6684753364429127e+01  8.6973611367848363e+01  8.7086232350185739e+01  8.7189005500524743e+01  8.7107594526937945e+01  8.7135098950261309e+01  8.7487317519443522e+01  8.7443139308629938e+01  8.7424627136802201e+01  8.7593465909941997e+01  8.7168159534172133e+01  8.6369122130924467e+01  8.5573888578223475e+01  8.4842482755432741e+01  8.3788291712488629e+01  8.2142577485489696e+01  8.1862007816093353e+01  8.3836077258345881e+01  8.4357754025831255e+01  8.4459502879825678e+01  8.4689332547735958e+01  8.4974861064304392e+01  8.5300629424416741e+01  8.6313812423401700e+01  8.6785677864622201e+01  8.7232495475216425e+01  8.7373414739555912e+01  8.6843365079912530e+01  8.6149036163464643e+01  8.5589524171578759e+01  8.4984397020057216e+01  8.5402715047475809e+01  8.5712784540298586e+01  8.6166977857305923e+01  8.6330518083888506e+01  8.6294948529351501e+01  8.6385473685373370e+01  8.6372943464344630e+01  8.6048117713493141e+01  8.5152778437030221e+01  8.3806008938205537e+01  8.3650276183226268e+01  8.5065121285689841e+01  8.5791178115109830e+01  8.6063569843393637e+01  8.5897421552505335e+01  8.6115081933797228e+01  8.5918078470476402e+01  8.5972829451473416e+01  8.5783223956848843e+01  8.5714119425065817e+01  8.5375695484199156e+01  8.3093086429081694e+01  8.0630590402980857e+01  7.7241826316299822e+01  7.4034047373535500e+01  7.0848854268629651e+01  6.8614113261832188e+01  6.7085028526271728e+01  6.5697155830991832e+01  6.4247929716750150e+01  6.2913724944057989e+01  6.1399950370323793e+01  6.1359852681440600e+01  6.2167091068339772e+01  6.4262230366092595e+01  6.5764328387708318e+01  6.6507924459125206e+01  6.7385227425498158e+01  6.8991387359104337e+01  7.1410633234640670e+01  7.5100777291127571e+01  7.6673902063970004e+01  7.6699404635675222e+01  7.4527761452676714e+01  7.1516934740505803e+01  7.1064204226298259e+01  7.3602689444164625e+01  7.5639077306027673e+01  7.6598922045982604e+01  7.6638694241168935e+01  7.4173249512056756e+01  6.9069575256888768e+01  6.8363261322892498e+01  6.7400898296321131e+01  6.6902779217564060e+01  6.5949828074173439e+01  6.4666833966969818e+01  6.3298186500745992e+01  6.2044168550233231e+01  6.0746432164419261e+01  6.0167593853434617e+01  5.9846307672949756e+01  5.9559155549184339e+01  5.8829813986737022e+01  5.8612406369269564e+01  5.8638699923329327e+01  5.9432167079503877e+01  6.0235826039789998e+01  6.0383638171230274e+01  5.9517514368671009e+01  5.8494412838804038e+01  5.7275428323930484e+01  5.6579965090271529e+01  5.6263275588214654e+01  5.4715118962249520e+01  5.3214878459270594e+01  5.1642804247091163e+01  5.1154413133785987e+01  5.0083368275521238e+01  4.8669993666244515e+01  4.9226749089755153e+01  4.8123271779579063e+01  4.7121218323954608e+01  4.5424279786644320e+01  4.3383141652140530e+01  4.2039364023035546e+01  4.0586482776809817e+01  3.9327284114734958e+01  3.8065372370726649e+01  3.7257807462215098e+01  3.6819958889289964e+01  3.5775736121385570e+01  3.4994470831589126e+01  3.4813808442116020e+01  3.4710964295228564e+01  3.3956188387826479e+01  3.3517860255098860e+01  3.2539546179885683e+01  3.3432844703651604e+01  5.4809099151589891e+01  4.2045229868238941e+01  3.5443449340722871e+01  3.2762291327326921e+01  3.2171258939930105e+01  3.3696932246638454e+01  3.2107862666333524e+01  3.1340845642878193e+01  3.1185701223370803e+01  3.1621650849730678e+01  3.2247710795035481e+01  3.2962950411858202e+01  3.3763581050366632e+01  3.4724962934229225e+01  3.6017213614517139e+01  3.6290892680024534e+01  3.6433673828205741e+01  3.7668505070114257e+01  4.0077488088404927e+01  4.0960523028849998e+01  4.0077642820756573e+01  4.0040439679617663e+01  5.2854540065884521e+01  5.8999444681461604e+01  8.4343410711523333e+01  8.6797783093988514e+01  8.7431516692958795e+01  8.4508206337525195e+01  8.7188489813739920e+01  4.8867872385087345e+01  8.4365500401430111e+01  8.6006884668529452e+01  7.2954593450462141e+01  7.2026003065761401e+01  5.8955723250158300e+01  5.8658047140216013e+01  8.5882303485701158e+01  5.2855443757328729e+01  5.2523445655951960e+01  8.4072744741960889e+01  8.4604447696480690e+01  4.8865460614384524e+01  8.3512085158367981e+01  8.6006136756235989e+01  8.4503809833482848e+01  8.3933296514371619e+01  8.6055886433910075e+01  8.4003486528918657e+01  8.6056028101919864e+01  4.9702528821380071e+01  6.7063199032245848e+01  7.5286946853629203e+01  5.2590711882506362e+01  3.8132994263105907e+01  5.5616851379705700e+01  7.4264411760698707e+01  6.1560197583286659e+01  6.3849892784240943e+01  4.1944982976277565e+01  4.5318945719116634e+01  7.6037218575329575e+01  4.6101417497839634e+01  8.1186256053413473e+01  6.7816045721986683e+01  5.7254843354505745e+01  5.6569897389192839e+01  6.9953388343601731e+01  3.3678577480217918e+01  7.7152869452503367e+01  6.1620140881846226e+01  7.2075592376186520e+01  5.2416589209196466e+01  3.7830954302200709e+01  4.8804978985634868e+01  4.5735984430405345e+01  5.7757232080165537e+01  4.3347825773510479e+01  8.0278767383326539e+01  3.6615168383948749e+01  7.4677642931641188e+01  6.6287148009656661e+01  6.9125401396706920e+01  5.0282938354077174e+01  7.2074354861455760e+01  6.2566015866215260e+01  6.8333175945661566e+01  6.4650529640877565e+01  5.5517662476472083e+01  3.9601461147886504e+01  5.9410765262108377e+01  7.9243937342175059e+01  7.3955824356570588e+01  8.4748019855194329e+01  7.1539874638084100e+01  6.9084826781508681e+01  5.5881137398853326e+01  3.9628909040486398e+01  4.1005573752338954e+01  5.9892510315782005e+01  7.8289405822741585e+01  6.0224196790801749e+01  3.5036354977512431e+01  4.0010031881986848e+01  8.0417428570535947e+01  4.5301061304770400e+01  3.1231785131431330e+01  6.7062094121145961e+01  7.5072101917380181e+01  6.4618462600645813e+01  5.3817251931629890e+01  8.5126149425387482e+01  4.0184773350569884e+01  5.0224131091628124e+01  6.0517504285645536e+01  6.5547215557493985e+01  5.6348674944618786e+01  4.7101285633832482e+01  4.3159234097173510e+01  5.8213296717558457e+01  4.8342473293222930e+01  4.7837736840040812e+01  4.4135384369061391e+01  5.0199914014471744e+01  8.3779436036157804e+01  7.7683788719447065e+01  5.2703119597875343e+01  8.2383424277118635e+01  7.5056096016799785e+01  7.5524074598851115e+01  7.9705370024066426e+01  6.2290242475984712e+01  5.8597546822948281e+01  6.7481271090665174e+01  7.1763285777416300e+01  5.8028049420772120e+01  7.7828704033580877e+01  5.3286085902018684e+01  6.5106905510335835e+01  3.2075897533164195e+01  5.1065769042519648e+01  6.8843250262785290e+01  7.6461274379676638e+01  6.6018347245963056e+01  7.0074869819777021e+01  6.2477158019496066e+01  7.0465230659354745e+01  3.6522689649981579e+01  5.5368135675332212e+01  5.2898434923199638e+01  7.9042976500438968e+01  6.8485334055190009e+01  3.7815819215329810e+01  7.8532012462343985e+01  6.3503811301899262e+01  8.3861977818936268e+01  3.3150280999871931e+01  8.3990541740259999e+01  8.3939936664925895e+01  5.5075573095866488e+01  5.0555610897576216e+01  8.4029395192565701e+01  8.5073453690238722e+01  8.2197778325139140e+01  8.4636777642486777e+01  7.1141914081199161e+01  3.5981101175873803e+01  8.0111622781190704e+01  7.5036846989946554e+01  5.5948729233202357e+01  5.0139103940300927e+01  4.6554912881568185e+01  8.4719982766892826e+01  8.3966470276327144e+01  5.7771563510592905e+01  8.5237018027905251e+01  8.3067072021407924e+01  8.3505673477624299e+01  8.5314952300969949e+01  5.9918571526456219e+01  4.8668759848466095e+01  7.0338542179438519e+01  3.3973612400584557e+01  4.8405268193732276e+01  3.7486612815829837e+01  6.8446724950200078e+01  8.6515633099008113e+01  6.6159734056873177e+01  7.2480603102770615e+01  8.2831157513592316e+01  6.1159440699131586e+01  3.0109085058817477e+01  7.1533673831959916e+01  3.9730850004705246e+01  5.1841869068906021e+01  8.4329192452910604e+01  8.2387651165600118e+01  6.1349554248800608e+01  8.6526559689548790e+01  4.4186203306137870e+01  8.4903332026698806e+01  6.3185683333585246e+01  3.2228885154893341e+01  3.6135264722973950e+01  3.7338381154727735e+01  7.2118726366755368e+01  8.1177418855419972e+01  8.0332871035750486e+01  6.8064155500937602e+01  8.4466902324598692e+01  5.9292027458100968e+01  4.8571913230787118e+01  4.8538854907794217e+01  3.2113163625133510e+01  8.4037540083582599e+01  8.4209211811756177e+01  8.4272138465592107e+01  7.4747491653846126e+01  8.0865070663031304e+01  8.4424378233795565e+01  8.2865888264511256e+01  6.6357543269198175e+01  8.7330109808932491e+01  8.7213470932231033e+01  6.0912019536372505e+01  3.5218819675167190e+01  6.0336215164753291e+01  8.1344528948056336e+01  5.5413967052826393e+01  6.4151184902695789e+01  8.6797915019353340e+01  6.2643826682466816e+01  7.2747345179107626e+01  4.0661713727440528e+01  5.6280108577407795e+01  5.5536558259541636e+01  5.6833495373987006e+01  8.5365485911939871e+01  4.9973920659758086e+01  5.1049920298543498e+01  4.8918483188711292e+01  5.0882558364764286e+01  4.6943569587784687e+01  3.2799575886909345e+01  3.0771899685548178e+01  5.1720648734417672e+01  5.4775945027352542e+01  7.6133482648314583e+01  7.5996740053216399e+01  8.7016557176954905e+01  6.6466806460020862e+01  6.4607810007897996e+01  6.0488604854544171e+01  6.0142732664060368e+01  6.0675614205549550e+01  6.1713193282316794e+01  6.0751734237673148e+01  6.1357532141016478e+01  6.3256772797450402e+01  6.1657647687263434e+01  6.2382660225654362e+01  6.4372277495938135e+01  6.3359142694916407e+01  5.8473188148850731e+01  6.0029953551417911e+01  4.4374937039953323e+01  4.6338089370369147e+01  4.4555280709024331e+01  4.2709926681757800e+01  4.3549457462933169e+01  4.1359408688595281e+01  4.2891350886016752e+01  4.2208925346675855e+01  3.8877277049752635e+01  3.7675251622657804e+01  3.3745411294343192e+01  3.4204392980652202e+01  3.4285093817960892e+01  3.5432672896452580e+01  3.4895153426290882e+01  3.6202313269886226e+01  3.6614891251393203e+01  3.5736591606751162e+01  3.6345139122760784e+01  3.6686526651502483e+01  3.7104743589946395e+01  3.6646665437708087e+01  3.7617463099218945e+01  4.0913419036829005e+01  3.8924529778778791e+01  4.9831278587446249e+01  4.6497008831829589e+01  4.7621412960398047e+01  5.1619468828204027e+01  6.9929905715521585e+01  6.7795456896284918e+01  6.6261238092636461e+01  6.8061056059920588e+01  7.3485867795816944e+01  7.6486775182770430e+01  7.5245743318267756e+01  7.6548729312244163e+01  5.5072916970976159e+01  5.0334438508403622e+01  5.2157227181778524e+01  5.4707913050312619e+01  3.8127852941866166e+01  3.9756978867748501e+01  3.7448147682447598e+01  3.8740881275128501e+01  3.8391583666944676e+01  3.7882187642224295e+01  5.5335943866823186e+01  5.8641554579352011e+01  5.4567522773840956e+01  5.6949937935273503e+01  5.2917810586647249e+01  7.4966492215515217e+01  7.2401515531353482e+01  6.2314366566604676e+01  6.0412717878171534e+01  6.3730591839426054e+01  5.9811705723362550e+01  6.3341028811887192e+01  6.1959768458147870e+01  6.2914377089651481e+01  6.6173400652804176e+01  6.4550852313042640e+01  3.9628085890362428e+01  4.0259865711468663e+01  4.1370257569982748e+01  4.1158133847343883e+01  4.4727145768685475e+01  4.4192499231840273e+01  4.8129033729792312e+01  4.2013801532947561e+01  4.2536018033559067e+01  4.6276124740054527e+01  4.7175691748014508e+01  7.4291326323603883e+01  7.7697008608739694e+01  7.6139004642618531e+01  7.7907755469223346e+01  8.0244096287170422e+01  6.9639997446056128e+01  6.7267212500512102e+01  6.8778014819157846e+01  6.8419272279621538e+01  5.5609015689996227e+01  5.8223533840395774e+01  5.7446762581567775e+01  5.5047266581337304e+01  7.2081203952187508e+01  7.0273942806484584e+01  6.9523586609148097e+01  6.8427060005614976e+01  3.5114422815344653e+01  3.3729740816489247e+01  6.1680586952462754e+01  6.1277669379007463e+01  5.9922600513457176e+01  7.1970132606569535e+01  7.0395615692344862e+01  7.3697812606815816e+01  7.0782553084488825e+01  5.4449009660852482e+01  5.0356134957827535e+01  5.1624389766319482e+01  5.3101186507550814e+01  5.0627589080871275e+01  5.2254958369086474e+01  3.8452212561083719e+01  3.6973437225623904e+01  3.8842469629914639e+01  3.7227498294870301e+01  3.7806845784603404e+01  3.7898405578915678e+01  4.7068774528106260e+01  5.1604744588271451e+01  4.9443789027262660e+01  5.1881992726711182e+01  4.2144563422734386e+01  4.6976557173104041e+01  4.6748707870652048e+01  4.8250816838107895e+01  4.2565591054472392e+01  4.4909906232142099e+01  5.8397932638341665e+01  5.8946496438453948e+01  5.6741481166109168e+01  5.7925920039885796e+01  4.1433552334773672e+01  4.4336294394268343e+01  4.1527112067174393e+01  4.5296604210982402e+01  3.8385352641631805e+01  3.4656209932452882e+01  3.8436563723879935e+01  3.6503481325063852e+01  3.6288995308564338e+01  3.5373636854692201e+01  3.7211283861923818e+01  6.7047408699679934e+01  6.3912154243337049e+01  6.8139769745512950e+01  6.6205115767764141e+01  6.9773820427195446e+01  4.8775215611393307e+01  4.9386301428586243e+01  7.0274683476989068e+01  6.4265767176530289e+01  6.0450665369513793e+01  6.0200979055664185e+01  6.2938032958070920e+01  7.0029518544618341e+01  6.7902056705355179e+01  6.3515493768830417e+01  6.3672831509038907e+01  5.7496042708503943e+01  5.2683984490248754e+01  4.0789737912760216e+01  3.9130158902189201e+01  3.8078769795404789e+01  5.8734220360177403e+01  6.0975067528358267e+01  7.7373966830836963e+01  7.8530224736561138e+01  7.2693126542622366e+01  7.5762078311719918e+01  7.2773467862896311e+01  7.3323740604315802e+01  6.9219477172311286e+01  6.7820641907022775e+01  5.8859767684976504e+01  3.8706026285349104e+01  5.9789110328672244e+01  5.8485086589450844e+01  3.5304884526185916e+01  3.6972080278364544e+01  3.5242895225711777e+01  4.2575595231500131e+01  4.4828534486177162e+01  5.5926618304139325e+01  5.2399132202985058e+01  5.3634577352839628e+01  5.0141691800050275e+01  6.0180821193005649e+01  6.0820794728552706e+01  6.0739605775179633e+01  6.1561830764505267e+01  6.5243259266523580e+01  6.4738750801782217e+01  5.5258415094939359e+01  4.9856999394880880e+01  4.9528411992201789e+01  5.0654131330070392e+01  4.9161747750740354e+01  4.5945286492804179e+01  4.7007015377230495e+01  5.5851930319189492e+01  5.2882573972297529e+01  7.6609937537566196e+01  5.5640605414734281e+01  5.2785638793574286e+01  6.3903956691390619e+01  6.8601375256689479e+01  6.8723738503523819e+01  6.7366227608023763e+01  3.7666506490190372e+01  3.3954976423663297e+01  3.6809118878364671e+01  6.0539304606022121e+01  3.6810061391544899e+01  6.1879041503120170e+01  4.2103567825097230e+01  3.8177174236127030e+01  6.1778535364697447e+01  5.0869394612908785e+01  6.9067089319290687e+01  3.8225855643294544e+01  3.8590265311694672e+01  3.7801595888945343e+01  3.8153652712721339e+01  3.7630404127040691e+01  6.2650231719045500e+01  4.5232266486625747e+01  4.7116463293324919e+01  4.6513571759043778e+01  7.6958449243509619e+01  6.0050659057076565e+01  5.6492961789254920e+01  5.6093383255850156e+01  5.6253764390889486e+01  3.5048691618306613e+01  7.1067670908840128e+01  7.1480838121586160e+01  3.8637929838829557e+01  3.8112234679908987e+01  4.9437746338151619e+01  5.0469284098738932e+01  4.3810569686802900e+01  5.9125268692890138e+01  6.2633545368129994e+01  6.3523526928710723e+01  6.1520191289334704e+01  6.3696624290783184e+01  4.0671299826400777e+01  3.9053199025167373e+01  3.9186150728387076e+01  3.8790390162029908e+01  7.0381113801975815e+01  3.9367307904678633e+01  4.0655473041914099e+01  4.1268832307755659e+01  5.4162339552969158e+01  5.4709946326356260e+01  5.4854499371160664e+01  5.3131756203804834e+01  4.1484404474614578e+01  3.9198884448458003e+01  4.0645665148291592e+01  5.1352381667626084e+01  7.5046551484785383e+01  7.5943733369642445e+01  7.6601734940388454e+01  6.2543985511702225e+01  6.8279653234698387e+01  5.4424138040297876e+01  5.1782041353761031e+01  5.0452396028113206e+01  5.2240592227082821e+01  6.7581360250993157e+01  6.2196885793495966e+01  6.2983361825422449e+01  3.7646715942279279e+01  3.7372922192086108e+01  3.6624597016634773e+01  5.3803609253999490e+01  5.7095490725957042e+01  5.8095104189159393e+01  5.3642337025259920e+01  6.8751150687663113e+01  3.6829701062473191e+01  3.7607813076282994e+01  3.7343210857985454e+01  6.1763676688255323e+01  6.1344893108494475e+01  6.1513090238423210e+01  4.3412744635803477e+01  4.4532152988688459e+01  4.5039394976554021e+01  3.7715123180463941e+01  3.5550885277621894e+01  3.6135155259674285e+01  6.2501119823376200e+01  6.3504644592616742e+01  6.2983313239500312e+01  6.2098115317048119e+01  6.2258396512775967e+01  6.2206156223700958e+01  6.2125239970303838e+01  4.5201441213446877e+01  3.6279533532938686e+01  5.0939518121114276e+01  7.0387516010649605e+01  5.3095252784065551e+01  5.2702863168510277e+01  3.8037970497377138e+01  3.9009977135518298e+01  3.8856229823120792e+01  3.9852729832279969e+01  3.9622889784381080e+01  3.8303218363284678e+01  5.3883771719955192e+01  5.3552963705210104e+01  5.2695422220934489e+01  6.3483248224020883e+01  6.2829133514590417e+01  3.8966845615523347e+01  3.9323272637583180e+01  4.3156952708111795e+01  4.3192628065354739e+01  4.7847513438773134e+01  4.1789515667389338e+01  4.2058826507735439e+01  4.1650134198017412e+01  4.8334189099758277e+01  7.6879148418030539e+01  5.5833565964842911e+01  5.7042032050743941e+01  5.5302486633702301e+01  6.9178687606337633e+01  6.9656313539859624e+01  6.8648392878594606e+01  5.2297381931964409e+01  5.4190398926071474e+01  5.2759858186889403e+01  4.5399306561026634e+01  5.9319313437603611e+01  5.6244609701645196e+01  3.9665123482555600e+01  3.8313279144698427e+01  6.7996245296406656e+01  6.8110063727657945e+01  6.8646922781613029e+01  3.8459402466020855e+01  3.6977205565173705e+01  </DataArray> 
</PointData> 
</Piece>
</UnstructuredGrid>
</VTKFile>