<?xml version="1.0"?>
<VTKFile type="UnstructuredGrid"  version="0.1"  >
<UnstructuredGrid>
<Piece  NumberOfPoints="784" NumberOfCells="1320">
<Points>
<DataArray  type="Float64"  NumberOfComponents="3"  format="ascii">266913.131276 586512.314988 0  266738.13716 587762.325998 0  266363.132677 589012.328643 0  266175.641078 590169.601714 0  265666.575631 591040.7699119999 0  264875.64001 591687.766419 0  264900.636161 591845.049083 0  266088.14152 592012.3229499999 0  265561.959259 592661.17101 0  264288.136855 593037.368683 0  263865.194033 593999.8486949999 0  263850.641856 593236.729596 0  263625.634872 592756.525286 0  262689.574249 593299.848918 0  262475.636737 594003.0907310001 0  261934.554452 594340.929792 0  261725.631329 594932.094409 0  261729.256443 595728.498809 0  262138.136044 595012.330523 0  262288.141035 596262.333669 0  261488.994028 597511.480605 0  261234.15567 598316.338928 0  260815.635063 599014.863821 0  261400.643658 599389.7367680001 0  261322.963374 600022.185065 0  261119.455248 600931.061306 0  261607.436504 601293.0629359999 0  260807.446929 602089.899812 0  260025.642878 602988.868697 0  259613.135827 603937.3854499999 0  259050.643123 604100.987861 0  258411.880065 603988.6335979999 0  257764.357469 604449.872569 0  257971.239668 605320.429125 0  258041.396867 605740.635381 0  257188.143339 606987.394312 0  256038.141198 608112.3554550001 0  254788.141633 609087.4026939999 0  253588.140656 609812.362881 0  252338.135706 609737.4048949999 0  251088.138116 609787.404055 0  249963.12851 610287.399466 0  248613.130524 610462.365857 0  247363.132198 610687.407659 0  246113.130532 610837.411551 0  245832.347438 610918.209918 0  245016.946433 610958.5639439999 0  244313.129646 610762.372259 0  244400.622144 611378.093316 0  243939.669208 612460.8930899999 0  242960.649733 611984.892792 0  242170.381438 611919.647351 0  241888.122919 611112.375656 0  241393.380757 610467.6456149999 0  240594.157528 611306.369822 0  240525.621947 610804.648112 0  240363.123632 610512.3745050001 0  239113.123247 610262.374278 0  239813.12126 609037.412459 0  240588.122952 607812.368199 0  241013.119545 606625.9534560001 0  241454.373249 605724.888025 0  242238.120107 604687.3993 0  243088.121248 603462.362766 0  242860.319451 603007.3932640001 0  241563.116617 603812.361344 0  241778.400913 604327.642217 0  242059.837234 604824.879102 0  241475.620201 604923.2402390001 0  241462.182234 605449.881372 0  240906.219606 605674.888222 0  240241.856192 606891.125066 0  239891.734044 607841.012479 0  239048.653431 608724.889805 0  238118.054545 608974.895967 0  238888.111029 607337.406468 0  239738.119992 606212.362729 0  240288.12044 605687.4075229999 0  240380.212307 604729.521696 0  239347.309632 604603.204501 0  238888.112036 604387.408787 0  237913.11173 604687.401386 0  236784.172023 604499.882783 0  236883.408793 603717.08334 0  236154.933927 603595.565605 0  235688.103943 602912.369264 0  235763.108033 601662.366516 0  236363.110805 600412.35884 0  236738.107995 599162.356577 0  236525.607944 598482.2412899999 0  236138.109208 599362.357613 0  235725.063048 600325.4466510001 0  235091.948926 601408.5220979999 0  235188.10921 600312.366344 0  234375.602405 600833.9674270001 0  234663.109308 599912.358011 0  234138.105122 600062.365644 0  233955.307245 599029.561063 0  233338.103791 598387.401556 0  233988.09795 597862.356384 0  235138.101489 596637.3947750001 0  235563.1039 595387.392428 0  236513.103639 594212.356312 0  237163.10684 592987.3929869999 0  238313.103031 591862.3515540001 0  239513.107028 590812.3512640001 0  240638.102135 589787.387271 0  241463.109549 588587.378486 0  242294.489816 587443.735215 0  242913.101099 586512.341804 0  243544.066915 585474.859604 0  243040.448415 585184.975583 0  242438.10214 585337.38015 0  241313.102353 586562.339499 0  240538.107104 587787.382449 0  240114.641085 588588.939407 0  239388.100256 589437.382238 0  238188.104456 590512.346358 0  236938.100507 591362.349798 0  235813.10453 592537.396388 0  234864.502938 593178.7753880001 0  234463.097651 592862.357267 0  235113.0965 591662.3545979999 0  235713.101522 590412.346099 0  235777.688431 589976.7582779999 0  234943.583145 590706.265132 0  234462.482256 591490.2841159999 0  233801.497784 592112.940187 0  233388.099101 591787.394208 0  234013.093099 590437.393065 0  234776.217248 587148.7548100001 0  235163.093726 586562.3486189999 0  235313.098918 585483.229012 0  235250.59732 584662.298153 0  235588.093896 583337.379493 0  236329.432041 582199.858992 0  237188.096234 581462.3349939999 0  237463.088521 580212.335511 0  238350.592558 579057.652616 0  238591.415797 578574.847681 0  238313.094106 577612.328905 0  239229.696732 577695.769664 0  240195.161018 577513.008613 0  240614.996733 577149.8518770001 0  240663.091715 577412.332622 0  240288.092486 578662.334085 0  239942.357258 579508.095811 0  240438.100019 580212.3334220001 0  241338.095553 580387.375355 0  241238.099828 579137.369157 0  241788.097003 577887.370889 0  241983.554649 577241.9220939999 0  242054.178239 576927.8105029999 0  242588.100699 575737.366175 0  243149.324833 574898.583978 0  243695.278626 573919.517981 0  244268.494418 573724.8454239999 0  244995.134063 573930.2767810001 0  245417.314363 573391.601898 0  243450.599125 571859.479773 0  245776.797908 572599.8353060001 0  246779.639852 572973.285167 0  248034.741935 573186.082054 0  249413.10651 573162.3205520001 0  250496.922226 573271.1521899999 0  251613.105126 573237.3551319999 0  252421.824577 572846.032906 0  253256.245022 572580.4733130001 0  253739.471933 571960.9547369999 0  254174.511864 572149.8346569999 0  254484.944333 571684.194807 0  254384.108649 570891.346712 0  254344.002752 570218.26407 0  255025.609604 570829.0294979999 0  255715.005913 570489.264586 0  256218.846343 570774.828355 0  256834.349083 570508.5908 0  257390.092515 570014.308325 0  257624.431042 568493.478911 0  259355.811717 569380.021819 0  260033.372814 569617.066669 0  262679.741751 570320.699974 0  263289.115756 569524.817815 0  263463.114338 570512.301061 0  264638.198419 570687.3443539999 0  265058.220065 571334.378467 0  265447.561421 572077.90485 0  265488.125257 573137.3446020001 0  265131.937715 573963.293593 0  265432.389648 575093.068786 0  265638.122314 576338.029955 0  265750.630817 577371.8281319999 0  265738.570663 578561.9098850001 0  265875.630866 579139.630549 0  266213.129247 579862.311842 0  266563.130472 581112.314509 0  266238.135356 582362.310259 0  265938.12863 583612.320897 0  265738.131342 584762.3210189999 0  266875.638633 585365.358768 0  264018.7239399826 593650.4646671159 0  262236.3944351029 595831.1252656333 0  241846.246678 605206.1436625 0  240200.622106 608424.8903290001 0  240943.4862974102 610939.7757535663 0  236550.6094 599787.3577085 0  238528.1212051503 608102.9081793013 0  244413.4891967989 572609.5960859474 0  236382.0474488751 598808.3067022427 0  235369.601910944 600933.5380148316 0  235413.099011 591037.3503485 0  235446.2251831186 590266.6553871984 0  240475.5921005 578037.3333535 0  240413.173949154 577324.4280286073 0  240574.037899 606283.0066440001 0  263857.9179445 593618.2891454998 0  264153.4303974913 593343.916675058 0  242042.1833925 604946.7714812499 0  241650.3099635 605465.51584375 0  244613.6985165 572229.6575395 0  236631.8579695 598822.2989335 0  235140.029068 600860.444221 0  241767.7287175 604874.0596705 0  242140.15174975 604817.0853906251 0  234781.8558075 600573.1668855001 0  242091.167571125 604881.9284359375 0  234519.3558565 600373.162719 0  254604.8337712102 583989.0014118921 0  250699.5846056537 594617.3297041012 0  250540.4796469513 602258.2940568649 0  248483.7490186612 580334.7345534252 0  258549.2190328319 577893.951823392 0  257067.0067473103 590016.5327808241 0  243285.0921999099 596333.923437875 0  248333.1386145258 589098.0389905117 0  256142.8445072741 595883.3911551933 0  260245.1368072523 583315.2785712298 0  253472.3380211276 578932.2908163272 0  246432.3347504817 599884.5019511909 0  261555.9240922556 588041.186709004 0  247293.1100123104 605823.8307887657 0  246458.2798550911 593168.8646574575 0  252840.0183145193 588226.5564648228 0  249828.2874404451 584740.7888937403 0  255409.5660975206 600458.8956828594 0  260819.9733392385 574219.403683011 0  252584.2262054711 605722.6603825617 0  254049.8830611471 592547.4852571967 0  250015.4356193061 598425.2225922942 0  245872.072249477 577604.9761853142 0  262002.1583249522 579753.4663046852 0  257732.6630933878 586227.970805314 0  250242.5556457866 577017.3316409125 0  244921.6453001869 581816.6358421432 0  256520.3890639471 580904.824006648 0  240779.0970645865 599524.6679555867 0  257100.1829219198 574459.5922545703 0  239912.2630002034 595231.1172704464 0  244703.0875078634 590068.6945953515 0  242549.5490268674 592874.3693043783 0  251586.0465921376 581796.2215047925 0  246643.189997516 596527.447801719 0  251049.7658069622 591057.6752245198 0  253014.5731561695 596998.6601086652 0  238680.2197353724 584542.2309791476 0  259715.365803504 591937.1938619445 0  254097.157218761 575731.4494927844 0  246806.6408589328 586139.0877599345 0  246136.1179750556 602959.471719323 0  253520.7033332401 602835.180253843 0  244125.4295793909 607538.9817227355 0  252546.8895354472 599881.3279113505 0  258289.0983523553 600397.640191779 0  247518.7952199645 583037.3718217331 0  263140.3959879661 582529.2228421422 0  262894.8586894067 585442.3590432997 0  256968.6320599076 593040.7691844478 0  243573.0187527719 600218.2795730785 0  258888.5766127351 595139.7745218446 0  262588.7569809347 576734.8569237856 0  259318.4257992262 580601.2540325444 0  249963.3812725965 607065.7205847671 0  257494.5307999607 583482.5893534871 0  258906.4757205145 572278.8089438241 0  237751.446593475 587300.5805003279 0  255142.4708720699 604956.7580261135 0  258485.4978753244 597756.9250383095 0  255516.7820591553 587791.39641967 0  239758.4692108706 601926.8203218657 0  255873.0092222999 577739.5085867504
[...]
<PointData  Scalars="f_32-1"> 
<DataArray  type="Float64"  Name="f_32-1"  format="ascii">3.7972927844433919e+01  3.9173816816920706e+01  4.1027887334112897e+01  4.2699292554790247e+01  4.3927496097768305e+01  4.5814868368319885e+01  4.6429651092627175e+01  4.6830110827783379e+01  4.6872397483158842e+01  4.7486617061546973e+01  4.7891766488718090e+01  4.7717695841094297e+01  4.7855656850831892e+01  5.0130695161140082e+01  5.1440494135333601e+01  5.2543060414882419e+01  5.3907989070850213e+01  5.5276355751887706e+01  5.5234861053312784e+01  5.5648435170916947e+01  5.7661691561322144e+01  5.9262619904894194e+01  6.1056221371512642e+01  6.2005668327681008e+01  6.2509240258358091e+01  6.3711750830742986e+01  6.4060322683902555e+01  6.4732587877292161e+01  6.5973119621592986e+01  6.6708140242211741e+01  6.6872936940544918e+01  6.7269144727113101e+01  6.8288238389488953e+01  6.9138896464100242e+01  6.9299890462575576e+01  7.0136884161757536e+01  7.1293760018589992e+01  7.2516506667417573e+01  7.3393449289499216e+01  7.4134019128482919e+01  7.5243933927696816e+01  7.6284784633490247e+01  7.7215884123650525e+01  7.8028443170506520e+01  7.8749447652579207e+01  7.8901051407622518e+01  7.9289185937938015e+01  7.9790781019309605e+01  8.0188237403843985e+01  8.0373390303002338e+01  8.0410520704160973e+01  8.0446566861608773e+01  8.0431188639760776e+01  8.0509361448863260e+01  8.0705778841337562e+01  8.0690575082682287e+01  8.0693569903139050e+01  8.0775580132364723e+01  8.0560962634696750e+01  7.9891855220437904e+01  7.9137832186130936e+01  7.8517712160759444e+01  7.7525741998245977e+01  7.5915807493978335e+01  7.5744787418903655e+01  7.7769602578155457e+01  7.8292371522094228e+01  7.8412193750355939e+01  7.8551490452211553e+01  7.8749275414224712e+01  7.9009287194504097e+01  7.9974819022614057e+01  8.0344710752429435e+01  8.0559592794552827e+01  8.0608402517671195e+01  8.0371038756185058e+01  7.9818715334423771e+01  7.9269070784931586e+01  7.8702112477278149e+01  7.9043760400622119e+01  7.9324110922759573e+01  7.9715776117414649e+01  7.9829852488493330e+01  7.9822194361883945e+01  7.9864328287661337e+01  7.9839012302186489e+01  7.9577761517972476e+01  7.8746922636661111e+01  7.7382913091180811e+01  7.7225070508189319e+01  7.8584632482826692e+01  7.9172387814260404e+01  7.9350112609933092e+01  7.9214107996812487e+01  7.9293474711418796e+01  7.9150548476342280e+01  7.9137433697787628e+01  7.8950087801868861e+01  7.8867666715096007e+01  7.8603460630532055e+01  7.6522474519032713e+01  7.4322511042921320e+01  7.1503528806958755e+01  6.8814317355169592e+01  6.6240308930047462e+01  6.4074860723799077e+01  6.2373503232481660e+01  6.0869014717397988e+01  5.9268549345036973e+01  5.7842388774174800e+01  5.6015620643574358e+01  5.5297324442936493e+01  5.5635501483206475e+01  5.8472366325902804e+01  6.0703476121575179e+01  6.1588740213942998e+01  6.2486607114138579e+01  6.4051099357297105e+01  6.6175594077253606e+01  6.8635917523474760e+01  6.9338696854199412e+01  6.9346550155667600e+01  6.8288122335900923e+01  6.6221305421641645e+01  6.5841388949120443e+01  6.7708718422621700e+01  6.8976541333175049e+01  6.9413133645789728e+01  6.9417395935874893e+01  6.8060955685899160e+01  6.3789749895894964e+01  6.3126549657241078e+01  6.2147098456144064e+01  6.1613165915098762e+01  6.0779790040713060e+01  5.9742613610376196e+01  5.8489806719889394e+01  5.7283302115349599e+01  5.6212350855845358e+01  5.5759635809556762e+01  5.5488509884050998e+01  5.5395997964645794e+01  5.5114772644538959e+01  5.5030725974879132e+01  5.5040802316946234e+01  5.5428249793309817e+01  5.6010804180031712e+01  5.6087077087508987e+01  5.4963350069149435e+01  5.3764691642841754e+01  5.2660155034452508e+01  5.1980201888342535e+01  5.1686927485623507e+01  5.0315826942254809e+01  4.9083428913329300e+01  4.7971339053242147e+01  4.7618475790354886e+01  4.6546895006510560e+01  4.5198881515152451e+01  4.5250720192463298e+01  4.4799858010138045e+01  4.4043066383234560e+01  4.2219702436899105e+01  4.0111529469331138e+01  3.8802549499541172e+01  3.7352945793100020e+01  3.6149763936626798e+01  3.4995520483072404e+01  3.4337891407130648e+01  3.3917803860255553e+01  3.3005533942256243e+01  3.2469852338519104e+01  3.2407390595550147e+01  3.2310165686121778e+01  3.1827632955169943e+01  3.1372348338926063e+01  3.0373582109271553e+01  2.9586311440757459e+01  2.9809400078263277e+01  2.8699659553994817e+01  2.8642024787018148e+01  3.0311533820980110e+01  3.0450638790261554e+01  3.0462108726926633e+01  3.0185508608922969e+01  2.9823439111706708e+01  2.9494832285570435e+01  2.9533790140654737e+01  2.9992700723301521e+01  3.0682313705278155e+01  3.1366316557546831e+01  3.1999456246515290e+01  3.2850580948207629e+01  3.3317749955247599e+01  3.3935175320838496e+01  3.5221345635043882e+01  3.6883218477526938e+01  3.7751194945665851e+01  3.7547068657701658e+01  3.7497210959554110e+01  4.7845669622628300e+01  5.5426467812268427e+01  7.8070735827372289e+01  8.0285895252431672e+01  8.0680936936129157e+01  7.8092447693133607e+01  8.0540204638743063e+01  4.5102535231662216e+01  7.7912988208605739e+01  7.9315763408429333e+01  6.7271629214863410e+01  6.6548268704324840e+01  5.5173088793687150e+01  5.5048229869967606e+01  7.9557689517212381e+01  4.7845766276794940e+01  4.7735055112593535e+01  7.7811024772554049e+01  7.8311206840561653e+01  4.5101491380392957e+01  7.7094610004281137e+01  7.9315855852963566e+01  7.8436064508360616e+01  7.7672489814355202e+01  7.9265156829305766e+01  7.7742783815888899e+01  7.9264540301902031e+01  4.4805850337350201e+01  6.0981595079192076e+01  6.9404855153128821e+01  4.6817137796544664e+01  3.2881099021703058e+01  4.7863355091414839e+01  6.8890459815504457e+01  5.5745559172611856e+01  5.9003862519990818e+01  3.8478890700015945e+01  3.8798490439614341e+01  6.8829928457399234e+01  4.2782661324955320e+01  7.5248749685489386e+01  6.1707455011335803e+01  4.9004269586344840e+01  5.1820410796254201e+01  6.2735243287687560e+01  3.0890665785320675e+01  7.1581990262861495e+01  5.6346134898057109e+01  6.4273933950044935e+01  4.7629164631298288e+01  3.3437434173951765e+01  4.2391072746821429e+01  4.1013382968879263e+01  5.2586796088934420e+01  3.9033345462204622e+01  7.4524492180739657e+01  3.3526368119596064e+01  6.9528148643095037e+01  5.8642782835077291e+01  6.4220275994166130e+01  4.6447231875364615e+01  6.6444795102118320e+01  5.4827893171081556e+01  6.1888159701944339e+01  5.9420050850449691e+01  5.1050824133109487e+01  3.5066238381619080e+01  5.4600661950334256e+01  7.3042714336727840e+01  6.8321002361868523e+01  7.8433540607448222e+01  6.4928817598220022e+01  6.3696192423583689e+01  5.1515412843322480e+01  3.6143009287498828e+01  3.8312756020457272e+01  5.4305697685405335e+01  7.2562625008256134e+01  5.5971268562554719e+01  3.2155696466564763e+01  3.5315370769211434e+01  7.4476171945752327e+01  4.1204175768602475e+01  2.9612891064923119e+01  6.2163867686365471e+01  6.9608277330262183e+01  5.9882479619165785e+01  4.3842176638129565e+01  7.8079117843887758e+01  3.4541978509234895e+01  4.6721557215264816e+01  5.4819790529826712e+01  5.9687582242666508e+01  5.1629563376246779e+01  4.2993466474412763e+01  4.0169609309719945e+01  5.0950575900858780e+01  4.3766043175254111e+01  4.3688791507451903e+01  4.0931758272227867e+01  4.4942496418668334e+01  7.7561034997446313e+01  7.2043328676173886e+01  4.8532300411330063e+01  7.6266011126319839e+01  6.9517936636131253e+01  6.7124517160593911e+01  7.3899963442566047e+01  5.7388667261890923e+01  5.4181294052854682e+01  6.0286079567932816e+01  6.6290315718770287e+01  5.2958733300292359e+01  7.1661004861051623e+01  4.5562576583538636e+01  6.0065005118321146e+01  2.9911427163526888e+01  4.4770143104479217e+01  6.3103927528160895e+01  7.1114367811056354e+01  5.7779934140204929e+01  6.5048036307321013e+01  5.6620770977840564e+01  6.5786875121516431e+01  3.2505764366157955e+01  4.8284937532405756e+01  4.8904672314642482e+01  7.3188256284078349e+01  6.1376121996244962e+01  3.4191976031936484e+01  7.2790563447928179e+01  5.8145991362243592e+01  7.7286653989233116e+01  3.0656761822886995e+01  7.7782956160197656e+01  7.7715685359652426e+01  5.0680888785141761e+01  4.6761318608572516e+01  7.7779954459881523e+01  7.8685267164992069e+01  7.6086282352518168e+01  7.8049460474133710e+01  6.5564481001427296e+01  3.3112418414958739e+01  7.4092527144028367e+01  6.9602199638464086e+01  5.1495064819297184e+01  4.6373723925295259e+01  4.3430667314017626e+01  7.8447980264956271e+01  7.7709185595241578e+01  5.3633039036521438e+01  7.8739058064064523e+01  7.6796207137420296e+01  7.7258803522949535e+01  7.8819564347392003e+01  5.4720248558236470e+01  4.4966899473995873e+01  6.5314978345758504e+01  3.1353899187413095e+01  4.5062118891442616e+01  3.3323863440896922e+01  6.3482392103485786e+01  8.0078704388968902e+01  6.1179243633158137e+01  6.6722358526897523e+01  7.6516299068865180e+01  5.4867323900276325e+01  2.8532670092856705e+01  6.6058801785181060e+01  3.6072461188442844e+01  4.8042933258655154e+01  7.7839204097064638e+01  7.6030960982319598e+01  5.6929856079937430e+01  8.0082183307565813e+01  3.9957750928790375e+01  7.8332842870716490e+01  5.8652182160599224e+01  2.9864719456091478e+01  3.3272031924222055e+01  3.4219979531740400e+01  6.6505428049349092e+01  7.5065958486446092e+01  7.4451194693888198e+01  6.3012372429578221e+01  7.8199815792410718e+01  5.5107798149813974e+01  4.4989339221877508e+01  4.4978387852365756e+01  2.9793769846075723e+01  7.7777698991681746e+01  7.7943154142799216e+01  7.8009096820309807e+01  6.9355906808701533e+01  7.4828681781773980e+01  7.8062317684878394e+01  7.6632550277761638e+01  6.1396497240937030e+01  8.0635295655149974e+01  8.0587989068802457e+01  5.6052713051797717e+01  3.2048264969897552e+01  5.5970461838168781e+01  7.5271073112035069e+01  5.1372663746157841e+01  5.9287092484338778e+01  8.0256809151972291e+01  5.6514839122426928e+01  6.7325207999527152e+01  3.7526390099160274e+01  5.1736265905840035e+01  5.1027513206158808e+01  5.2295895310764301e+01  7.8751997147577441e+01  4.6223584518656864e+01  4.7026088789404213e+01  4.5345251053347184e+01  4.6905935522928523e+01  4.3519795285711737e+01  3.0144115286626825e+01  2.8812786637992886e+01  4.7990314195500105e+01  5.0447782619424416e+01  6.9115974927778893e+01  6.9047165154026416e+01  8.0457497064606727e+01  6.1366398605304568e+01  5.9298785339944658e+01  5.5589879754108530e+01  5.5198453698899755e+01  5.5244241708752604e+01  5.5334186789764523e+01  5.5119225308504461e+01  5.5082122923141362e+01  5.6892023927327926e+01  5.5194901240996408e+01  5.5802183811441559e+01  5.8653181029759907e+01  5.7073450587818584e+01  5.3726576954997206e+01  5.5115493663924482e+01  4.1056544351825160e+01  4.2596909301253447e+01  4.0856159887248651e+01  3.9450643790573075e+01  3.9876132449917733e+01  3.8117121927913956e+01  3.9211215583587503e+01  3.8587222276587404e+01  3.5657496254345844e+01  3.4601116333275364e+01  3.1239819643008477e+01  3.1673695293860195e+01  3.1612435642353130e+01  3.2404062727789210e+01  3.1945441067882012e+01  3.3085548558817877e+01  3.3057626009911445e+01  3.2353108509427976e+01  3.3633363258353839e+01  3.3254083854596573e+01  3.4056765616409074e+01  3.3519162073459370e+01  3.4757947354995366e+01  3.6900403256496602e+01  3.5610676918286615e+01  4.2334724636429641e+01  4.2495349205856307e+01  4.2649289303505000e+01  4.5405206058926652e+01  6.1711579536577098e+01  6.1301094310244778e+01  6.0564320388008333e+01  6.1851759394662210e+01  6.7583629518672140e+01  7.0790052056163432e+01  6.8379763806397889e+01  7.0384365361593353e+01  4.9300251956605187e+01  4.5512766923681525e+01  4.5482529436951019e+01  4.7155763331716983e+01  3.3366935082440328e+01  3.4833160802295708e+01  3.3365577279288239e+01  3.3760348866858656e+01  3.3314898611593613e+01  3.2790479766085255e+01  4.9913508762778513e+01  5.1247332567272274e+01  4.5572791226374179e+01  4.8831578455539585e+01  4.6215279995255656e+01  6.9256160522406589e+01  6.6667678914241293e+01  5.4872309796475690e+01  5.4995310130710514e+01  5.7029002174384551e+01  5.4526609803123009e+01  5.6754081411808251e+01  5.5527654107311676e+01  5.7948860474146940e+01  6.0562671702378346e+01  5.9652549674157655e+01  3.5045411932072362e+01  3.6669612230402606e+01  3.8398879554784827e+01  3.7044386141651231e+01  3.9415346602430638e+01  3.8766489694842264e+01  4.3095116710530498e+01  3.6071735686761464e+01  3.6409473084212898e+01  4.1005498073852593e+01  4.1380409410681793e+01  6.6278559338211039e+01  7.0690272945323755e+01  6.7475309509769758e+01  7.1536161887940622e+01  7.4271150939584601e+01  6.4488592896070173e+01  5.9593815024965217e+01  6.3310224018142726e+01  6.1290650558622012e+01  4.6004226253704516e+01  4.9794409250271357e+01  5.1014717915768301e+01  4.6537369822875171e+01  6.5750604525929432e+01  6.3026208833637511e+01  6.3380342202269972e+01  6.0754969493482420e+01  3.2108799062451183e+01  3.1360368030129280e+01  5.6105323187988645e+01  5.5099411337539287e+01  5.3928747328575923e+01  6.5027686668387091e+01  6.2848524006276620e+01  6.6006218681973266e+01  6.3004855722428097e+01  4.9513462212014126e+01  4.5936809427368296e+01  4.6035590061775885e+01  4.7604510060216590e+01  4.6557606289128287e+01  4.8172859853598609e+01  3.4196549498546858e+01  3.3165918852154391e+01  3.3960287196798205e+01  3.3134199539221150e+01  3.3633517681804172e+01  3.3480889872007971e+01  4.1770569779914688e+01  4.2544975882213869e+01  4.3382101798574475e+01  4.2537838314841729e+01  3.7094336222358407e+01  4.2196919272474787e+01  4.2225717147773366e+01  4.3180124329653999e+01  3.7923708127432697e+01  4.0343612997617157e+01  5.2120960901406882e+01  5.3958129112406489e+01  5.1835830530747636e+01  5.0806088618439219e+01  3.7009633163269697e+01  4.0536331626237065e+01  3.6134721473815816e+01  4.1000444367520032e+01  3.4335806107997463e+01  3.1928999955130646e+01  3.4068247020899705e+01  3.3003316570612640e+01  3.3318925655182944e+01  3.2563898509610524e+01  3.3904357851820272e+01  5.7682768565596326e+01  5.7512620058236742e+01  5.9810345882763052e+01  6.0219934169228132e+01  6.4615935973873803e+01  4.4795193739220089e+01  4.5182405651952010e+01  6.4742277612971094e+01  5.7115211858743436e+01  5.4026283428729720e+01  5.3305437611511501e+01  5.6540926102204992e+01  6.2958314507092872e+01  6.1158224333606263e+01  5.8302166931972152e+01  5.8010941625337892e+01  5.2596298871077501e+01  4.8143572307421515e+01  3.4992549411623763e+01  3.5352973500452734e+01  3.4610258297913923e+01  5.4198614817242351e+01  5.5440013040608100e+01  6.9664463099501191e+01  7.2201003074247424e+01  6.6583305316274760e+01  7.0263162149805652e+01  6.7038264285383519e+01  6.6895184999312534e+01  6.1699319978307393e+01  6.1502320933317442e+01  5.0043518142322377e+01  3.5084744376379533e+01  5.2316697311163658e+01  5.4055675098773996e+01  3.2248241038354195e+01  3.2866869630998124e+01  3.2152643682444918e+01  3.8719782182037015e+01  4.1102781207981131e+01  4.7005371479592064e+01  4.3853822526283444e+01  4.4035695982332918e+01  4.6307310153564671e+01  5.4547566601972534e+01  5.4762500948262115e+01  5.5417521277489158e+01  5.5427571095946782e+01  5.8897267451143378e+01  5.8665064691503758e+01  4.9923663898171803e+01  4.6000653976512993e+01  4.4168293185475505e+01  4.6460606750615632e+01  4.4295756818171093e+01  4.1691116634272404e+01  4.2993105885285765e+01  5.0746327739007889e+01  4.7528311421395138e+01  6.9277433552430139e+01  4.9186595184571345e+01  4.6217124778888518e+01  5.6519148159906187e+01  5.9123909747814999e+01  6.3168045988132022e+01  6.1292865449003003e+01  3.3741828286492243e+01  3.1316908755727322e+01  3.3757413318944010e+01  5.4767062946781031e+01  3.2730055618884712e+01  5.5408471274206946e+01  3.8023840078046220e+01  3.4955424130544152e+01  5.6217113682568808e+01  4.3647469582267910e+01  6.1762883054238756e+01  3.3072528528224431e+01  3.3448775749576789e+01  3.2971482477807164e+01  3.3019926063866102e+01  3.2979904985053174e+01  5.6087957583029777e+01  3.9009527756002996e+01  4.0994071024275144e+01  4.0056730944747827e+01  6.8928847790663525e+01  5.2740811127776652e+01  4.7482487380678613e+01  4.7615211142493010e+01  4.8774686530867562e+01  3.1963746395409874e+01  6.2743446593658931e+01  6.3324606546559011e+01  3.3860967802291647e+01  3.3633587433385848e+01  4.2003994155782003e+01  4.2162829415207675e+01  3.8938827976394236e+01  5.1546617430473560e+01  5.4519018411090663e+01  5.5859474103274088e+01  5.3713182049570207e+01  5.6666991616488005e+01  3.5816011867938307e+01  3.4659463920892485e+01  3.5148333638741654e+01  3.4863915293924258e+01  6.3230744753761101e+01  3.4478656623352194e+01  3.6092181572822575e+01  3.6986631037328706e+01  4.4569651934951487e+01  4.4783878443753160e+01  4.5212732740616346e+01  4.3598572462617341e+01  3.5412873079318246e+01  3.4113296048347038e+01  3.4803023003464382e+01  4.4462735031686414e+01  6.6538433380915635e+01  6.7130216325336008e+01  6.8148811036471642e+01  5.7020810686481880e+01  6.0714757175929137e+01  4.7252607478519806e+01  4.5061514315373444e+01  4.4415691687041814e+01  4.5507748540050592e+01  5.8282680884019037e+01  5.5827511906455150e+01  5.6444283560522493e+01  3.2896173742767331e+01  3.2722783382943220e+01  3.2685825491612775e+01  4.7802848229308694e+01  4.9526043423910608e+01  4.8990405530660226e+01  4.7069781242882264e+01  6.0211052117007540e+01  3.2862227333797328e+01  3.3067924239048544e+01  3.3026477428468425e+01  5.5213790154036062e+01  5.5013896645968480e+01  5.5060277825692609e+01  3.8998994266040626e+01  4.0115046318367042e+01  4.0774288072095899e+01  3.4243863029521876e+01  3.2191476444791476e+01  3.2469609134995515e+01  5.6070401479704522e+01  5.7443601125955738e+01  5.6654420687910218e+01  5.5913424754755333e+01  5.5912141736482909e+01  5.6323453371668890e+01  5.5566778608870642e+01  4.1175672749188429e+01  3.2532851828455087e+01  4.2421055087071842e+01  6.2236774903257938e+01  4.6273472845368602e+01  4.5780536655166884e+01  3.2985979924495176e+01  3.3803223710909066e+01  3.3964526281267304e+01  3.5085046883376222e+01  3.4351436880176813e+01  3.3606989351430485e+01  4.5735651569134404e+01  4.4508371635273051e+01  4.4977045018384977e+01  5.5647124078117827e+01  5.5986328184398559e+01  3.4417841564360309e+01  3.5266232705446328e+01  3.7374930136051198e+01  3.7978542898928865e+01  4.2274525339557897e+01  3.6342363767407299e+01  3.6202572723934054e+01  3.5470040377969127e+01  4.3450883730941541e+01  6.8391730178170405e+01  4.6378416250264237e+01  4.8384181217399473e+01  4.7833996345971762e+01  6.1525646963634571e+01  6.2176118950921712e+01  6.0908288104034710e+01  4.6748364770966518e+01  4.8678463654110111e+01  4.6796462684121131e+01  4.0980695112753970e+01  5.0360588664099637e+01  5.0216771137503684e+01  3.4649189922823794e+01  3.4433786543459156e+01  5.8642858449436488e+01  5.8288908897873760e+01  5.9370129982507379e+01  3.4927704102479623e+01  3.2802403590329774e+01  </DataArray> 
</PointData> 
</Piece>
</UnstructuredGrid>
</VTKFile>