<?xml version="1.0"?>
<VTKFile type="UnstructuredGrid"  version="0.1"  >
<UnstructuredGrid>
<Piece  NumberOfPoints="3002" NumberOfCells="5870">
<Points>
<DataArray  type="Float64"  NumberOfComponents="3"  format="ascii">323455.6100285493 6048753.88242996 0  323455.6100285493 5954782.59950515 0  405920.1480513444 5954782.59950515 0  405920.1480513444 6048753.88242996 0  405920.1480513444 6001768.240967555 0  323455.6100285493 6001768.240967555 0  364687.8790399469 5954782.59950515 0  364687.8790399469 6048753.88242996 0  364687.8790399469 5996367.117560402 0  323455.6100285493 6025261.061698757 0  382226.6271443229 6022560.499995181 0  405920.1480513444 5978275.420236353 0  323455.6100285493 5978275.420236353 0  353897.8957397301 6022560.499995181 0  344071.7445342481 5954782.59950515 0  385304.0135456456 5954782.59950515 0  405920.1480513444 6025261.061698757 0  354379.8117870975 5975574.858532775 0  381582.8168806895 5978840.396198289 0  384950.2598624413 6001768.240967555 0  344643.0480768835 6003429.02033719 0  344071.7445342481 6048753.88242996 0  385304.0135456456 6048753.88242996 0  339717.0321562298 5986078.187627405 0  337515.036058786 5969821.016310448 0  368062.2614420265 6013076.224998265 0  368062.2614420265 6032044.774992097 0  393987.6142659165 5988729.699941677 0  405920.1480513444 6013514.651333156 0  392856.2821527076 6034589.119828064 0  393514.9611654527 5968369.338068204 0  339399.8087404341 6032061.482581838 0  323455.6100285493 6013514.651333156 0  374995.9462927963 5965504.865595459 0  354379.8117870975 6037976.901948514 0  338123.9088969378 6017031.529131207 0  367397.3120126425 5982072.559192053 0  351882.5752379905 5991998.990225234 0  376945.425450199 5991232.708824487 0  392265.0061656896 6013300.936254065 0  357029.7426706699 6006608.947964352 0  380093.6207558212 6036880.127749795 0  323455.6100285493 5966529.009870751 0  405920.1480513444 6037007.472064359 0  405920.1480513444 5966529.009870751 0  323455.6100285493 6037007.472064359 0  333763.6772813987 6048753.88242996 0  405920.1480513444 5990021.830601954 0  323455.6100285493 5990021.830601954 0  362879.3643765316 5966837.319094267 0  348367.6438548031 5965604.161682394 0  334493.1989038612 5996935.948935225 0  395068.5043068817 6023875.372615605 0  348216.0324377587 6013504.844950221 0  379305.9090074943 6011603.390019651 0  372523.5158233726 6003480.000732267 0  395435.2039568929 5999384.346358113 0  395612.080798495 5954782.59950515 0  333763.6772813987 5954782.59950515 0  395612.080798495 6048753.88242996 0  374995.9462927963 6048753.88242996 0  374995.9462927963 5954782.59950515 0  354379.8117870975 6048753.88242996 0  354379.8117870975 5954782.59950515 0  335074.5981535012 6007206.680367459 0  391925.2695590468 5978591.908877409 0  371969.1707190623 6022560.499995181 0  383872.162544519 5969415.106147043 0  358038.7139835292 5984533.09712744 0  369699.869182786 5973102.2359358 0  369841.9126663716 6041099.453006387 0  343176.7440329155 5994428.220622956 0  362933.5332293962 6024385.235173292 0  330640.1760208776 5984148.625419154 0  348684.7494355051 5983110.856817525 0  399094.9690929834 6007537.420809742 0  345447.6324516311 5974162.84917082 0  332859.7749513451 6039150.972778062 0  344517.044630671 6024057.945416138 0  332973.1214415312 6025037.914505113 0  341428.0126373461 6040493.820728126 0  385874.264691618 5992757.40885039 0  350337.3662538711 6030387.535304286 0  359887.2373602368 6016186.250094838 0  377097.8989316926 6029115.217702097 0  338917.7109078235 5961484.016839475 0  329495.5261590715 5972402.215053552 0  336644.7280634616 5978216.610794215 0  330688.6715098422 5962480.256438018 0  359899.8039476132 6031963.415584587 0  399746.255941904 6030426.523907755 0  385511.6875144855 6030368.508996127 0  387377.735783329 6040763.821024337 0  398832.192399829 5974431.100387635 0  387992.9498994246 5962432.032572681 0  405920.1480513444 5984148.625419153 0  364925.7641745284 6005782.953640081 0  361769.877068089 6041226.651684469 0  398452.9199001931 6040850.732439541 0  398946.6205243983 5962252.502309519 0  362305.5577564609 5975984.89789681 0  356822.8065216601 5998470.186307689 0  386900.7115926162 5984820.732438302 0  329528.0119279922 6032067.230024892 0  331139.6939744562 6013813.572928222 0  398457.5876798834 5982541.698799337 0  405920.1480513444 6019387.856515957 0  398685.5166750694 6017257.578706384 0  348587.9424884976 6042755.309150081 0  369841.9126663716 5960143.732550304 0  380149.979919221 5960143.732550304 0  359533.8454135222 5960172.384722514 0  377147.8814772839 5972649.581024994 0  341756.3455763521 6010124.092444684 0  355615.8176864882 5966311.193813809 0  369144.4338274571 5989807.770003954 0  375185.9047422862 5983510.422041401 0  323455.6100285493 6007641.446150355 0  391856.7960121195 6005888.565703365 0  371978.0245217044 5996361.134308098 0  405920.1480513444 5995895.035784755 0  378877.1880032702 5998073.745937059 0  359056.6617417652 5991643.489540118 0  399278.8743430426 5993436.466134224 0  386116.8775939071 6009922.097099247 0  323455.6100285493 6019387.856515957 0  388994.7833819839 6019826.789191471 0  348897.6207366391 5998116.079250046 0  345456.3301153719 6035064.814295612 0  323455.6100285493 6042880.677247159 0  334124.3013408988 5990072.953472659 0  377097.8989316926 6018059.782440464 0  323455.6100285493 5995895.035784755 0  342871.8474798963 5980154.238874755 0  373596.9793292385 6035659.183886081 0  380149.979919221 6048753.88242996 0  376327.9292813152 6042294.581731233 0  329163.3548105369 6004704.843558955 0  350303.9432136903 6007093.032074522 0  383982.6552804571 6015912.664375832 0  345515.490569988 5988567.439252969 0  379019.812877927 6004678.052169549 0  365541.9137639466 6018750.691894444 0  349225.7781606728 5954782.59950515 0  352493.3399767278 5960815.406895458 0  363683.8130458911 5986976.225872464 0  386666.791301207 5975084.583584332 0  368937.6553346639 5966171.092344863 0  400003.9882214358 5968352.273777306 0  328776.0063842635 5992958.433193355 0  339958.4428758043 5999572.344589042 0  354577.7732363954 6012555.454074449 0  328609.6436549741 6048753.88242996 0  382053.0280278458 5988228.496807038 0  330708.6817934912 5978212.973348036 0  372084.7734679543 5978495.086505585 0  358568.2738174705 5971419.415228934 0  328931.2672829705 5998832.905089681 0  323455.6100285493 6031134.266881558 0  405920.1480513444 5972402.215053552 0  405920.1480513444 6031134.266881558 0  323455.6100285493 5972402.215053552 0  405920.1480513444 5960655.804687951 0  323455.6100285493 5960655.804687951 0  405920.1480513444 6007641.446150355 0  323455.6100285493 5984148.625419153 0  405920.1480513444 6042880.677247159 0  346648.7613474604 5960023.05127712 0  342415.3891593561 5966358.988213831 0  350507.6510228226 5971111.740321856 0  391773.9667214506 5994456.117700323 0  338875.8905424621 6026088.827345025 0  361429.1735454847 6010511.262533597 0  389395.7028803263 6025805.543023561 0  392895.6464692951 6043315.288173481 0  332846.8296575367 6019296.633131165 0  373337.4404588729 6009693.515402478 0  336544.3064612215 6043648.151399015 0  348610.2411382072 6019567.839754772 0  381943.4597763228 6042183.394750732 0  355630.0631288611 6028071.82801846 0  363941.5238882306 6035967.852698964 0  328179.67203552 6022271.326978176 0  401066.2857736665 5998807.415073814 0  344387.1099621175 6029612.545574771 0  393435.2235156003 5960233.556458537 0  400735.9970493424 6022675.638064924 0  393708.5772019727 6029179.837160029 0  400609.0696943338 5987857.851798974 0  361753.6614662939 6001152.171757337 0  400766.1144249197 6048753.88242996 0  353363.0524357285 6002630.165620538 0  343248.328463803 6018790.640008039 0  356419.8105951758 6043365.392189237 0  390234.385899412 6000759.497967276 0  368336.1168551637 6000220.532318851 0  328609.6436549741 5954782.59950515 0  387520.8298169724 6035372.992507171 0  400588.0280660195 6035823.299583429 0  329021.6598427091 6043194.252697862 0  393371.710206733 5983576.325812268 0  393638.9721728675 5973623.513063556 0  371727.9212466564 6017113.044457142 0  364687.2762977295 5959941.212693035 0  374995.9462927962 5960346.83186599 0  369841.9126663716 5954782.59950515 0  400766.1144249197 5954782.59950515 0  338917.7109078234 5954782.59950515 0  369841.9126663716 6048753.88242996 0  359533.8454135222 5954782.59950515 0  390458.0471720704 6048753.88242996 0  338917.7109078234 6048753.88242996 0  390458.0471720704 5954782.59950515 0  359533.8454135222 6048753.88242996 0  380149.979919221 5954782.59950515 0  349225.7781606728 6048753.88242996 0  339867.4956514095 6005339.817053361 0  333737.9460226952 6002130.523287664 0  336955.8140048417 6012008.440073739 0  377097.8989316926 6023232.32559834 0  371748.9790486701 6028016.629988787 0  338146.5171983215 5993298.164761053 0  355016.8390227688 6017610.913088997 0  393953.1528190996 6018968.416019509 0  335185.8133477239 5965142.63403323 0  328616.6041642396 5967263.80307608 0  380314.9487662361 5965460.362415641 0  354622.8993466098 6032976.142863722 0  328521.4725131759 6027215.026914048 0  334465.0783479523 6034070.534389696 0  328123.6212682287 6009699.206425843 0  381889.5169855529 5973936.741901617 0  359122.3484437474 6036790.002992895 0  386341.6533148278 5979963.279841923 0  400798.2159679119 6012477.871311778 0  388538.3765260249 5967461.292146791 0  340833.8784183678 5975728.708105717 0  355307.6239213505 5988552.151815021 0  362181.4274823388 5981261.937800813 0  353784.0322742948 5981044.538811012 0  358045.1698423899 5978741.391518688 0  328423.7350325213 6036912.015930048 0  366897.6876966125 6027277.723668203 0  347355.1745641421 5978532.307510624 0  376820.5060332146 5979033.270735624 0  349378.1778589479 6024378.632814493 0  327189.2282939323 6016451.253924556 0  338433.8773236172 6036753.902881841 0  350141.9760340559 5987605.90026687 0  363794.7083927878 5991713.491814731 0  350325.1285660182 6035273.515460094 0  382355.9358007369 5983507.499638396 0  327107.0747437811 59811
[...]
<PointData  Scalars="f_3058-0"> 
<DataArray  type="Float64"  Name="f_3058-0"  format="ascii">2.0762295758380592e+07  2.0777306494466227e+07  2.0806668952663034e+07  2.0782316956888467e+07  2.0821735518664490e+07  2.0780962031285446e+07  2.0800523669537466e+07  2.0777304740840130e+07  2.0888663561994068e+07  2.0769528868059739e+07  2.0806849163867217e+07  2.0817535620174289e+07  2.0780759513266563e+07  2.0792484626437377e+07  2.0785121520933352e+07  2.0807328822653774e+07  2.0796442655597690e+07  2.0805450532161683e+07  2.0833007284123946e+07  2.0853902045181751e+07  2.0800238245670181e+07  2.0767473026104771e+07  2.0782076762850460e+07  2.0792058210186556e+07  2.0783777464985326e+07  2.0836599534028322e+07  2.0789202039845459e+07  2.0832318756400090e+07  2.0810392464385044e+07  2.0788411965017725e+07  2.0812551292150449e+07  2.0770664637575068e+07  2.0776030724310704e+07  2.0810823963405989e+07  2.0775929793826222e+07  2.0780733503902122e+07  2.0839300238379348e+07  2.0819348973936148e+07  2.0896870208981335e+07  2.0817432547803506e+07  2.0831893027310297e+07  2.0786640045736585e+07  2.0778373380171508e+07  2.0786072638095316e+07  2.0809850280790459e+07  2.0764273903900035e+07  2.0763693129617643e+07  2.0823945359212868e+07  2.0782352048196107e+07  2.0805114587790538e+07  2.0790816369616337e+07  2.0787205825670358e+07  2.0799780640318159e+07  2.0797452177432183e+07  2.0838109326612044e+07  2.0893606161685023e+07  2.0830729169862188e+07  2.0807063224262726e+07  2.0779398436117135e+07  2.0782353095323894e+07  2.0780601722835921e+07  2.0805567012099829e+07  2.0772502246803761e+07  2.0792954421326794e+07  2.0784396714914072e+07  2.0823793498253535e+07  2.0807872064385477e+07  2.0815822830211062e+07  2.0826126862752058e+07  2.0819241079914261e+07  2.0781369451459132e+07  2.0799468344049171e+07  2.0798667231782768e+07  2.0783678821776479e+07  2.0804172566681769e+07  2.0819411456222106e+07  2.0792759047675442e+07  2.0764945168912847e+07  2.0780515605259076e+07  2.0771753162002981e+07  2.0767701894866973e+07  2.0856510402452223e+07  2.0779363848412745e+07  2.0813936150442969e+07  2.0795758607937943e+07  2.0782470203301407e+07  2.0780480109671250e+07  2.0786085228648227e+07  2.0778901223515674e+07  2.0784786239552077e+07  2.0791513200796552e+07  2.0793563195351355e+07  2.0784306620174810e+07  2.0815918577170979e+07  2.0809437233272951e+07  2.0821420837643601e+07  2.0870110296845425e+07  2.0778000958855510e+07  2.0784126593368463e+07  2.0808310479199976e+07  2.0817206147220042e+07  2.0841230055671424e+07  2.0839846562616456e+07  2.0766848449876513e+07  2.0777859809773620e+07  2.0822818741038129e+07  2.0803270608887054e+07  2.0807318980732724e+07  2.0770506847494543e+07  2.0804724569681920e+07  2.0808037883479368e+07  2.0797968170882124e+07  2.0821148729687188e+07  2.0790481908562947e+07  2.0798037345154677e+07  2.0876222906270619e+07  2.0851190361999217e+07  2.0778815347275507e+07  2.0829853379186668e+07  2.0932350707573615e+07  2.0824215646712247e+07  2.0894834669868112e+07  2.0843936222210836e+07  2.0827424178240489e+07  2.0832117530896146e+07  2.0772793401819862e+07  2.0808617085477658e+07  2.0812478845153101e+07  2.0772354847980209e+07  2.0762797495985933e+07  2.0786947791128948e+07  2.0819478009392649e+07  2.0782142357407950e+07  2.0793333356692333e+07  2.0786780593495779e+07  2.0781536014928777e+07  2.0782425295056988e+07  2.0781334836006336e+07  2.0810124300906334e+07  2.0820397157770585e+07  2.0802146533103738e+07  2.0865206196505912e+07  2.0814355854674518e+07  2.0788907055611700e+07  2.0792449083720766e+07  2.0847511329863008e+07  2.0822570399468280e+07  2.0808817303042609e+07  2.0811285799548507e+07  2.0783520052219592e+07  2.0793492644465391e+07  2.0811778231232792e+07  2.0762660829809669e+07  2.0860548258110348e+07  2.0782390142997421e+07  2.0833187498167098e+07  2.0805883012662042e+07  2.0782943775220722e+07  2.0766604031003572e+07  2.0813378884734858e+07  2.0790540092161607e+07  2.0779528931354299e+07  2.0807506493524637e+07  2.0777604179724261e+07  2.0816875218662355e+07  2.0781842112895172e+07  2.0783278523686834e+07  2.0787515265615631e+07  2.0786119069127001e+07  2.0796306364147000e+07  2.0839256697999503e+07  2.0774341668194611e+07  2.0834758396959305e+07  2.0798901390876118e+07  2.0783253176123761e+07  2.0775352066930003e+07  2.0853241486461494e+07  2.0764974394001491e+07  2.0790066908325106e+07  2.0783289711590976e+07  2.0786351864959408e+07  2.0782874243174952e+07  2.0771738032062709e+07  2.0824900446517434e+07  2.0775515507576656e+07  2.0808066515359182e+07  2.0799848313205555e+07  2.0793607123809788e+07  2.0824841474438354e+07  2.0869963091962665e+07  2.0782355008743256e+07  2.0824497176547501e+07  2.0784408684072778e+07  2.0774426865834780e+07  2.0839915398508456e+07  2.0939431440797832e+07  2.0777844377808597e+07  2.0788076074151792e+07  2.0786952312490072e+07  2.0763180701081809e+07  2.0828312712859593e+07  2.0817182542573147e+07  2.0823143815019030e+07  2.0801620418792766e+07  2.0806957501197308e+07  2.0803469664056320e+07  2.0806803212447803e+07  2.0781866387663759e+07  2.0779174026718024e+07  2.0796927487137310e+07  2.0782323074780516e+07  2.0765338870916240e+07  2.0807316051365737e+07  2.0775014371071108e+07  2.0806819328551460e+07  2.0769906620192844e+07  2.0791000030837316e+07  2.0785323041502357e+07  2.0783320896207187e+07  2.0806665738310065e+07  2.0796688204301231e+07  2.0791517873209104e+07  2.0802562702023014e+07  2.0807163076326817e+07  2.0781162101207435e+07  2.0779137071583539e+07  2.0811726371438626e+07  2.0780067393084385e+07  2.0769053240257986e+07  2.0767398558718733e+07  2.0778726309944477e+07  2.0822879208432302e+07  2.0779572952408750e+07  2.0831140194612626e+07  2.0812620479475763e+07  2.0812927611080777e+07  2.0788825064255901e+07  2.0825659275291387e+07  2.0827995283982802e+07  2.0811391702234887e+07  2.0815582841860384e+07  2.0764711648767352e+07  2.0795988717551053e+07  2.0798243763471115e+07  2.0835715745454621e+07  2.0784975916379057e+07  2.0774856450176060e+07  2.0767799033175930e+07  2.0811147478311621e+07  2.0864924949747331e+07  2.0775264563138213e+07  2.0844582884397503e+07  2.0781773171480030e+07  2.0787030642358907e+07  2.0783057350289073e+07  2.0871185825892840e+07  2.0814422570479937e+07  2.0812607473270316e+07  2.0826237745272256e+07  2.0780541680364177e+07  2.0778588848116755e+07  2.0784218835403308e+07  2.0781026771397062e+07  2.0783212636798073e+07  2.0800880731840048e+07  2.0833936847082991e+07  2.0769269746190965e+07  2.0853212744523335e+07  2.0776288683003284e+07  2.0799149199686885e+07  2.0842123671298485e+07  2.0884263389468621e+07  2.0801657315084111e+07  2.0790822973850742e+07  2.0808933021940485e+07  2.0821700947341286e+07  2.0820787429525685e+07  2.0826075914304014e+07  2.0847470765806846e+07  2.0797918001409564e+07  2.0789517964982484e+07  2.0795648082241736e+07  2.0810902248909373e+07  2.0826577832300000e+07  2.0856747614150848e+07  2.0785216493678223e+07  2.0817255000252292e+07  2.0766640675111774e+07  2.0787678384160042e+07  2.0805029530421495e+07  2.0819991083582856e+07  2.0813617791586660e+07  2.0782776018440749e+07  2.0798302382374078e+07  2.0791620006692078e+07  2.0872355282850068e+07  2.0791622274832182e+07  2.0780668357200176e+07  2.0784281889693126e+07  2.0839502594591338e+07  2.0784831997120749e+07  2.0788629805203278e+07  2.0780407439110365e+07  2.0789229575775348e+07  2.0782723738482419e+07  2.0784480362123910e+07  2.0778135437523123e+07  2.0908082219780501e+07  2.0771918961592883e+07  2.0857636551035602e+07  2.0770196093221750e+07  2.0778615268250830e+07  2.0785976562244833e+07  2.0809731654590398e+07  2.0789392864703041e+07  2.0780644489259128e+07  2.0793204833809447e+07  2.0809642998787198e+07  2.0809165646277655e+07  2.0807211502762862e+07  2.0807472517355710e+07  2.0825042381874382e+07  2.0857965061658945e+07  2.0841584232902262e+07  2.0807105637077074e+07  2.0819054135825813e+07  2.0807788379828617e+07  2.0777814644377407e+07  2.0782985115250789e+07  2.0800214130370181e+07  2.0815661618765421e+07  2.0813735373295594e+07  2.0799383447021913e+07  2.0795011862185571e+07  2.0795139229112554e+07  2.0788871984465722e+07  2.0869831277215008e+07  2.0816905371426225e+07  2.0807847484918959e+07  2.0800983250283476e+07  2.0847983935885288e+07  2.0852555160082001e+07  2.0891432572186302e+07  2.0900615017472021e+07  2.0776530254033312e+07  2.0830743133014426e+07  2.0800815793012943e+07  2.0779091822734125e+07  2.0791685668498378e+07  2.0814958728854153e+07  2.0762436588701908e+07  2.0763426945805345e+07  2.0827154210977565e+07  2.0779301472158566e+07  2.0781061001170427e+07  2.0832739072201274e+07  2.0772997709455080e+07  2.0817450269434933e+07  2.0786128712303225e+07  2.0823000543693494e+07  2.0827004850926500e+07  2.0785891612135582e+07  2.0765322223745137e+07  2.0868085276541188e+07  2.0831705584741272e+07  2.0813330784802675e+07  2.0803038408933740e+07  2.0804593646845624e+07  2.0763684624950603e+07  2.0768394640380375e+07  2.0781924968528159e+07  2.0871808303899474e+07  2.0825030883824650e+07  2.0794534997621045e+07  2.0796358931557301e+07  2.0800422061348446e+07  2.0807580050445519e+07  2.0805022564239591e+07  2.0806616241682619e+07  2.0825116191426039e+07  2.0814101417250738e+07  2.0802795674025219e+07  2.0782889503027529e+07  2.0809235602135062e+07  2.0809896528868742e+07  2.0783477914623305e+07  2.0810380515425913e+07  2.0855900943325184e+07  2.0811202588162679e+07  2.0803560961319514e+07  2.0802395769219194e+07  2.0799018855416924e+07  2.0778923587328803e+07  2.0795119789472040e+07  2.0836481880784515e+07  2.0787104030996431e+07  2.0781376010376591e+07  2.0786304092759658e+07  2.0790638488572400e+07  2.0779797099123809e+07  2.0790676524149142e+07  2.0790176593845632e+07  2.0769555385288276e+07  2.0789775149431005e+07  2.0825076052588068e+07  2.0815103179510415e+07  2.0820816198284388e+07  2.0828157030310240e+07  2.0835578428843930e+07  2.0800635602339897e+07  2.0825690710521020e+07  2.0784932919952922e+07  2.0782923313861363e+07  2.0824673195120964e+07  2.0765867783895593e+07  2.0849594729355324e+07  2.0938825067952968e+07  2.0780117451150272e+07  2.0773596211632192e+07  2.0809124588964857e+07  2.0785205785094433e+07  2.0843732689656425e+07  2.0776488300540611e+07  2.0781821894228511e+07  2.0788112020933483e+07  2.0789249797921132e+07  2.0782363285459552e+07  2.0825162201958943e+07  2.0828432697439335e+07  2.0813780899193723e+07  2.0815920747010216e+07  2.0786226010122810e+07  2.0839157865407813e+07  2.0834410580771659e+07  2.0844354220284518e+07  2.0813079505439404e+07  2.0784542651282836e+07  2.0822587324956775e+07  2.0817134034394048e+07  2.0806318175948821e+07  2.0852528632962473e+07  2.0801342465193547e+07  2.0787460128876559e+07  2.0902211334432408e+07  2.0779816131126117e+07  2.0803913715193063e+07  2.0819793424691074e+07  2.0820266857266854e+07  2.0784723154887810e+07  2.0787627660762694e+07  2.0789711443591561e+07  2.0922616528863352e+07  2.0833525562421653e+07  2.0811495713607293e+07  2.0812957616554100e+07  2.0812158705807228e+07  2.0776718300861582e+07  2.0818384306937050e+07  2.0803835400634445e+07  2.0823999892751005e+07  2.0785915099967118e+07  2.0772234376328610e+07  2.0775531540324617e+07  2.0788723818089642e+07  2.0779358533202566e+07  2.0792872147475876e+07  2.0779356701932352e+07  2.0794837000335738e+07  2.0807652547559466e+07  2.0832079603795912e+07  2.0784123945310973e+07  2.0795320821341991e+07  2.0805067525940817e+07  2.0765729225764256e+07  2.0902159899985742e+07  2.0792796897060122e+07  2.0809160544546302e+07  2.0787592996913962e+07  2.0810434913394753e+07  2.0829024734472852e+07  2.0781160401654676e+07  2.0812482502700251e+07  2.0884169046023998e+07  2.0776253254963621e+07  2.0791154922560327e+07  2.0793433063855749e+07  2.0789352501839470e+07  2.0771131526891742e+07  2.0811330901674930e+07  2.0842563549449012e+07  2.0930049094986629e+07  2.0822920096675135e+07  2.0798345753667012e+07  2.0763551388302408e+07  2.0816378938179754e+07  2.0795360692848317e+07  2.0811535088059891e+07  2.0779584102024488e+07  2.0781436213469297e+07  2.0781645846591193e+07  2.0828527735952709e+07  2.0767996418878946e+07  2.0767270472700361e+07  2.0765807354405258e+07  2.0782187143697672e+07  2.0828050833835389e+07  2.0818825073980320e+07  2.0823646105965666e+07  2.0777496695683356e+07  2.0802658667632941e+07  2.0800804451873958e+07  2.0818815195299119e+07  2.0775601192251865e+07  2.0821792789826371e+07  2.0827910046477251e+07  2.0818137979792662e+07  2.0796594076622035e+07  2.0803584680811256e+07  2.0800941805381089e+07  2.0867099344177198e+07  2.0849843735239651e+07  2.0844834189808965e+07  2.0804704246635258e+07  2.0772518913726974e+07  2.0864457512169920e+07  2.0774969017922327e+07  2.0789779389306922e+07  2.0782651102626383e+07  2.0782355152760368e+07  2.0807218199082509e+07  2.0807631880534604e+07  2.0782563399203088e+07  2.0805922682989649e+07  2.0807916489576008e+07  2.0766371134413965e+07  2.0782187865789011e+07  2.0810628800312310e+07  2.0809702741119981e+07  2.0803211133553773e+07  2.0777380063180182e+07  2.0777448015006080e+07  2.0791802714236159e+07  2.0762597987040039e+07  2.0834320083838899e+07  2.0838670491522353e+07  2.0819903431569032e+07  2.0845200754665043e+07  2.0799772553351372e+07  2.0848542859047685e+07  2.0782316386077203e+07  2.0804769463022642e+07  2.0805856167434894e+07  2.0810157956582148e+07  2.0809921402779713e+07  2.0782133004591528e+07  2.0825635326130226e+07  2.0782366522007227e+07  2.0782652828860741e+07  2.0783742951118473e+07  2.0783806942598850e+07  2.0782733594085306e+07  2.0784697864717875e+07  2.0812200879168872e+07  2.0784953495761901e+07  2.0768418536272153e+07  2.0797179731148697e+07  2.0795719926374711e+07  2.0794022704613905e+07  2.0837757144375201e+07  2.0819589230189990e+07  2.0769718167254798e+07  2.0773360984330062e+07  2.0791971679737233e+07  2.0784160959177777e+07  2.0777496608076125e+07  2.0788736173964903e+07  2.0784219794986870e+07  2.0773576491571616e+07  2.0795194743146483e+07  2.0797596466196451e+07  2.0791972901436150e+07  2.0903066775293812e+07  2.0872971015391219e+07  2.0812140317186251e+07  2.0782562496874012e+07  2.0781919373666331e+07  2.0783742893855609e+07  2.0783095580295660e+07  2.0782343235275310e+07  2.0780005050575715e+07  2.0763954026183255e+07  2.0860993508420620e+07  2.0872901546865053e+07  2.0792938763094265e+07  2.0795163555622742e+07  2.0800473920831956e+07  2.0772991145773221e+07  2.0771127190211613e+07  2.0781013506781939e+07  2.0834518012536503e+07  2.0825273700476117e+07  2.0828715715132020e+07  2.0824410821142416e+07  2.0835658924780108e+07  2.0838153779686864e+07  2.0850012181954853e+07  2.0817824560844529e+07  2.0783098292863544e+07  2.0784786868722167e+07  2.0782824091952216e+07  2.0785374086620569e+07  2.0806889437409017e+07  2.0806827699673396e+07  2.0774426115261793e+07  2.0780153963092197e+07  2.0815449858648155e+07  2.0793347872669816e+07  2.0808492693325382e+07  2.0777939375694662e+07  2.0784437949498832e+07  2.0819551564242259e+07  2.0781350127766192e+07  2.0823341955640748e+07  2.0807928984471358e+07  2.0808848928571206e+07  2.0807336324822214e+07  2.0816716578391314e+07  2.0804490105542861e+07  2.0816946457178459e+07  2.0780925908107795e+07  2.0786959366039891e+07  2.0785946886722144e+07  2.0781038893346339e+07  2.0764444171168033e+07  2.0766219821635086e+07  2.0764623784391079e+07  2.0784970307884187e+07  2.0809957683218867e+07  2.0798179023539193e+07  2.0799173651698798e+07  2.0818232640565652e+07  2.0806972139586702e+07  2.0783931139723044e+07  2.0781991720376424e+07  2.0790850595415156e+07  2.0791316158896782e+07  2.0791826077579957e+07  2.0776182240309659e+07  2.0773090054358199e+07  2.0785461058345169e+07  2.0777838752414163e+07  2.0774088905028321e+07  2.0772360182245728e+07  2.0848736144648869e+07  2.0819090142377093e+07  2.0773658007631835e+07  2.0839582790158153e+07  2.0782697188406758e+07  2.0786398764328770e+07  2.0780201985660870e+07  2.0822762210208938e+07  2.0879679475903910e+07  2.0763094185885355e+07  2.0762962797253136e+07  2.0832045153300971e+07  2.0764990775551148e+07  2.0784028072997663e+07  2.0852933838387147e+07  2.0873341413517136e+07  2.0875334492274113e+07  2.0787111102613833e+07  2.0771326084788762e+07  2.0875640264087468e+07  2.0824882680113152e+07  2.0769952053031780e+07  2.0890390508921050e+07  2.0788236359355312e+07  2.0762919448907014e+07  2.0808705578426041e+07  2.0783417529593848e+07  2.0790245068393227e+07  2.0789375238484502e+07  2.0778306300188083e+07  2.0814679094887450e+07  2.0769993651737589e+07  2.0857589565656550e+07  2.0807593067652740e+07  2.0895551598413806e+07  2.0795407298489939e+07  2.0782023073312692e+07  2.0848074569477003e+07  2.0795115460419402e+07  2.0823841442495536e+07  2.0781139785729300e+07  2.0812738948529813e+07  2.0789023200689856e+07  2.0785338171101719e+07  2.0813593400657047e+07  2.0795837733814146e+07  2.0769059309628073e+07  2.0823149720012251e+07  2.0824574259003643e+07  2.0814878999044549e+07  2.0852155408357449e+07  2.0769709934235480e+07  2.0801374792688705e+07  2.0786948614943177e+07  2.0782152424233206e+07  2.0830127987274289e+07  2.0807141877131142e+07  2.0807277263699301e+07  2.0785941443854954e+07  2.0788207180569172e+07  2.0790671727801736e+07  2.0797011233010571e+07  2.0794988088444173e+07  2.0908282899085872e+07  2.0868356983636938e+07  2.0838841983435996e+07  2.0842828285630744e+07  2.0836606170910686e+07  2.0844467071190596e+07  2.0834877453922201e+07  2.0793273177159194e+07  2.0801846124575134e+07  2.0817258863374259e+07  2.0782358925759904e+07  2.0788678500859451e+07  2.0784812047144100e+07  2.0822345684883520e+07  2.0819946538222097e+07  2.0822421339180872e+07  2.0838034507729672e+07  2.0768557586069915e+07  2.0767533712381385e+07  2.0802101024894081e+07  2.0811847729510963e+07  2.0809572380485084e+07  2.0781505840828717e+07  2.0779096264840484e+07  2.0798701326847855e+07  2.0805822336117975e+07  2.0806720003522575e+07  2.0773820961677108e+07  2.0803795996877622e+07  2.0815143954287071e+07  2.0816932392942339e+07  2.0822650924785390e+07  2.0813006160455193e+07  2.0817362120349124e+07  2.0814111606352344e+07  2.0815855689062163e+07  2.0763814082672633e+07  2.0781437710433628e+07  2.0782361407592852e+07  2.0809529051896587e+07  2.0788715865064021e+07  2.0768676774763074e+07  2.0778865536854621e+07  2.0778489542914875e+07  2.0779862285426259e+07  2.0798817205586098e+07  2.0795017281488072e+07  2.0794621501524899e+07  2.0801897017357081e+07  2.0825944598433640e+07  2.0825352829713903e+07  2.0794455345098384e+07  2.0806703122637048e+07  2.0778202030580789e+07  2.0830202394870833e+07  2.0768407074254122e+07  2.0774338898820423e+07  2.0800800770494040e+07  2.0803629134703301e+07  2.0807516856796246e+07  2.0806015970160581e+07  2.0808595195151765e+07  2.0782118804547820e+07  2.0786512968560800e+07  2.0783920733033162e+07  2.0795367674617764e+07  2.0779565051865593e+07  2.0762385055245459e+07  2.0804633284057915e+07  2.0807367944117855e+07  2.0766350398050852e+07  2.0779939595385935e+07  2.0782223532985851e+07  2.0790919567111183e+07  2.0798809109270860e+07  2.0802098776730031e+07  2.0806311699081384e+07  2.0776204819712546e+07  2.0806921694674235e+07  2.0778501403486878e+07  2.0771215098590709e+07  2.0782368193714429e+07  2.0780535824890994e+07  2.0784306645385720e+07  2.0883986260370906e+07  2.0806104452402085e+07  2.0823067474869166e+07  2.0790872329826321e+07  2.0779927791680116e+07  2.0770645332913239e+07  2.0787435466633480e+07  2.0764113336872328e+07  2.0834611334844187e+07  2.0792248416436777e+07  2.0781232943927027e+07  2.0827321758209996e+07  2.0779943440341972e+07  2.0824684869555201e+07  2.0785375248167802e+07  2.0830185833417747e+07  2.0782652775539491e+07  2.0850745461577754e+07  2.0814236227867279e+07  2.0811107743216127e+07  2.0805871339719679e+07  2.0778301530545272e+07  2.0831844877033539e+07  2.0807642899620168e+07  2.0803330322316270e+07  2.0772074754883148e+07  2.0797536992455658e+07  2.0782485132661305e+07  2.0778173010850880e+07  2.077699702