<?xml version="1.0"?>
<VTKFile type="UnstructuredGrid"  version="0.1"  >
<UnstructuredGrid>
<Piece  NumberOfPoints="3002" NumberOfCells="5870">
<Points>
<DataArray  type="Float64"  NumberOfComponents="3"  format="ascii">323455.6100285493 6048753.88242996 0  323455.6100285493 5954782.59950515 0  405920.1480513444 5954782.59950515 0  405920.1480513444 6048753.88242996 0  405920.1480513444 6001768.240967555 0  323455.6100285493 6001768.240967555 0  364687.8790399469 5954782.59950515 0  364687.8790399469 6048753.88242996 0  364687.8790399469 5996367.117560402 0  323455.6100285493 6025261.061698757 0  382226.6271443229 6022560.499995181 0  405920.1480513444 5978275.420236353 0  323455.6100285493 5978275.420236353 0  353897.8957397301 6022560.499995181 0  344071.7445342481 5954782.59950515 0  385304.0135456456 5954782.59950515 0  405920.1480513444 6025261.061698757 0  354379.8117870975 5975574.858532775 0  381582.8168806895 5978840.396198289 0  384950.2598624413 6001768.240967555 0  344643.0480768835 6003429.02033719 0  344071.7445342481 6048753.88242996 0  385304.0135456456 6048753.88242996 0  339717.0321562298 5986078.187627405 0  337515.036058786 5969821.016310448 0  368062.2614420265 6013076.224998265 0  368062.2614420265 6032044.774992097 0  393987.6142659165 5988729.699941677 0  405920.1480513444 6013514.651333156 0  392856.2821527076 6034589.119828064 0  393514.9611654527 5968369.338068204 0  339399.8087404341 6032061.482581838 0  323455.6100285493 6013514.651333156 0  374995.9462927963 5965504.865595459 0  354379.8117870975 6037976.901948514 0  338123.9088969378 6017031.529131207 0  367397.3120126425 5982072.559192053 0  351882.5752379905 5991998.990225234 0  376945.425450199 5991232.708824487 0  392265.0061656896 6013300.936254065 0  357029.7426706699 6006608.947964352 0  380093.6207558212 6036880.127749795 0  323455.6100285493 5966529.009870751 0  405920.1480513444 6037007.472064359 0  405920.1480513444 5966529.009870751 0  323455.6100285493 6037007.472064359 0  333763.6772813987 6048753.88242996 0  405920.1480513444 5990021.830601954 0  323455.6100285493 5990021.830601954 0  362879.3643765316 5966837.319094267 0  348367.6438548031 5965604.161682394 0  334493.1989038612 5996935.948935225 0  395068.5043068817 6023875.372615605 0  348216.0324377587 6013504.844950221 0  379305.9090074943 6011603.390019651 0  372523.5158233726 6003480.000732267 0  395435.2039568929 5999384.346358113 0  395612.080798495 5954782.59950515 0  333763.6772813987 5954782.59950515 0  395612.080798495 6048753.88242996 0  374995.9462927963 6048753.88242996 0  374995.9462927963 5954782.59950515 0  354379.8117870975 6048753.88242996 0  354379.8117870975 5954782.59950515 0  335074.5981535012 6007206.680367459 0  391925.2695590468 5978591.908877409 0  371969.1707190623 6022560.499995181 0  383872.162544519 5969415.106147043 0  358038.7139835292 5984533.09712744 0  369699.869182786 5973102.2359358 0  369841.9126663716 6041099.453006387 0  343176.7440329155 5994428.220622956 0  362933.5332293962 6024385.235173292 0  330640.1760208776 5984148.625419154 0  348684.7494355051 5983110.856817525 0  399094.9690929834 6007537.420809742 0  345447.6324516311 5974162.84917082 0  332859.7749513451 6039150.972778062 0  344517.044630671 6024057.945416138 0  332973.1214415312 6025037.914505113 0  341428.0126373461 6040493.820728126 0  385874.264691618 5992757.40885039 0  350337.3662538711 6030387.535304286 0  359887.2373602368 6016186.250094838 0  377097.8989316926 6029115.217702097 0  338917.7109078235 5961484.016839475 0  329495.5261590715 5972402.215053552 0  336644.7280634616 5978216.610794215 0  330688.6715098422 5962480.256438018 0  359899.8039476132 6031963.415584587 0  399746.255941904 6030426.523907755 0  385511.6875144855 6030368.508996127 0  387377.735783329 6040763.821024337 0  398832.192399829 5974431.100387635 0  387992.9498994246 5962432.032572681 0  405920.1480513444 5984148.625419153 0  364925.7641745284 6005782.953640081 0  361769.877068089 6041226.651684469 0  398452.9199001931 6040850.732439541 0  398946.6205243983 5962252.502309519 0  362305.5577564609 5975984.89789681 0  356822.8065216601 5998470.186307689 0  386900.7115926162 5984820.732438302 0  329528.0119279922 6032067.230024892 0  331139.6939744562 6013813.572928222 0  398457.5876798834 5982541.698799337 0  405920.1480513444 6019387.856515957 0  398685.5166750694 6017257.578706384 0  348587.9424884976 6042755.309150081 0  369841.9126663716 5960143.732550304 0  380149.979919221 5960143.732550304 0  359533.8454135222 5960172.384722514 0  377147.8814772839 5972649.581024994 0  341756.3455763521 6010124.092444684 0  355615.8176864882 5966311.193813809 0  369144.4338274571 5989807.770003954 0  375185.9047422862 5983510.422041401 0  323455.6100285493 6007641.446150355 0  391856.7960121195 6005888.565703365 0  371978.0245217044 5996361.134308098 0  405920.1480513444 5995895.035784755 0  378877.1880032702 5998073.745937059 0  359056.6617417652 5991643.489540118 0  399278.8743430426 5993436.466134224 0  386116.8775939071 6009922.097099247 0  323455.6100285493 6019387.856515957 0  388994.7833819839 6019826.789191471 0  348897.6207366391 5998116.079250046 0  345456.3301153719 6035064.814295612 0  323455.6100285493 6042880.677247159 0  334124.3013408988 5990072.953472659 0  377097.8989316926 6018059.782440464 0  323455.6100285493 5995895.035784755 0  342871.8474798963 5980154.238874755 0  373596.9793292385 6035659.183886081 0  380149.979919221 6048753.88242996 0  376327.9292813152 6042294.581731233 0  329163.3548105369 6004704.843558955 0  350303.9432136903 6007093.032074522 0  383982.6552804571 6015912.664375832 0  345515.490569988 5988567.439252969 0  379019.812877927 6004678.052169549 0  365541.9137639466 6018750.691894444 0  349225.7781606728 5954782.59950515 0  352493.3399767278 5960815.406895458 0  363683.8130458911 5986976.225872464 0  386666.791301207 5975084.583584332 0  368937.6553346639 5966171.092344863 0  400003.9882214358 5968352.273777306 0  328776.0063842635 5992958.433193355 0  339958.4428758043 5999572.344589042 0  354577.7732363954 6012555.454074449 0  328609.6436549741 6048753.88242996 0  382053.0280278458 5988228.496807038 0  330708.6817934912 5978212.973348036 0  372084.7734679543 5978495.086505585 0  358568.2738174705 5971419.415228934 0  328931.2672829705 5998832.905089681 0  323455.6100285493 6031134.266881558 0  405920.1480513444 5972402.215053552 0  405920.1480513444 6031134.266881558 0  323455.6100285493 5972402.215053552 0  405920.1480513444 5960655.804687951 0  323455.6100285493 5960655.804687951 0  405920.1480513444 6007641.446150355 0  323455.6100285493 5984148.625419153 0  405920.1480513444 6042880.677247159 0  346648.7613474604 5960023.05127712 0  342415.3891593561 5966358.988213831 0  350507.6510228226 5971111.740321856 0  391773.9667214506 5994456.117700323 0  338875.8905424621 6026088.827345025 0  361429.1735454847 6010511.262533597 0  389395.7028803263 6025805.543023561 0  392895.6464692951 6043315.288173481 0  332846.8296575367 6019296.633131165 0  373337.4404588729 6009693.515402478 0  336544.3064612215 6043648.151399015 0  348610.2411382072 6019567.839754772 0  381943.4597763228 6042183.394750732 0  355630.0631288611 6028071.82801846 0  363941.5238882306 6035967.852698964 0  328179.67203552 6022271.326978176 0  401066.2857736665 5998807.415073814 0  344387.1099621175 6029612.545574771 0  393435.2235156003 5960233.556458537 0  400735.9970493424 6022675.638064924 0  393708.5772019727 6029179.837160029 0  400609.0696943338 5987857.851798974 0  361753.6614662939 6001152.171757337 0  400766.1144249197 6048753.88242996 0  353363.0524357285 6002630.165620538 0  343248.328463803 6018790.640008039 0  356419.8105951758 6043365.392189237 0  390234.385899412 6000759.497967276 0  368336.1168551637 6000220.532318851 0  328609.6436549741 5954782.59950515 0  387520.8298169724 6035372.992507171 0  400588.0280660195 6035823.299583429 0  329021.6598427091 6043194.252697862 0  393371.710206733 5983576.325812268 0  393638.9721728675 5973623.513063556 0  371727.9212466564 6017113.044457142 0  364687.2762977295 5959941.212693035 0  374995.9462927962 5960346.83186599 0  369841.9126663716 5954782.59950515 0  400766.1144249197 5954782.59950515 0  338917.7109078234 5954782.59950515 0  369841.9126663716 6048753.88242996 0  359533.8454135222 5954782.59950515 0  390458.0471720704 6048753.88242996 0  338917.7109078234 6048753.88242996 0  390458.0471720704 5954782.59950515 0  359533.8454135222 6048753.88242996 0  380149.979919221 5954782.59950515 0  349225.7781606728 6048753.88242996 0  339867.4956514095 6005339.817053361 0  333737.9460226952 6002130.523287664 0  336955.8140048417 6012008.440073739 0  377097.8989316926 6023232.32559834 0  371748.9790486701 6028016.629988787 0  338146.5171983215 5993298.164761053 0  355016.8390227688 6017610.913088997 0  393953.1528190996 6018968.416019509 0  335185.8133477239 5965142.63403323 0  328616.6041642396 5967263.80307608 0  380314.9487662361 5965460.362415641 0  354622.8993466098 6032976.142863722 0  328521.4725131759 6027215.026914048 0  334465.0783479523 6034070.534389696 0  328123.6212682287 6009699.206425843 0  381889.5169855529 5973936.741901617 0  359122.3484437474 6036790.002992895 0  386341.6533148278 5979963.279841923 0  400798.2159679119 6012477.871311778 0  388538.3765260249 5967461.292146791 0  340833.8784183678 5975728.708105717 0  355307.6239213505 5988552.151815021 0  362181.4274823388 5981261.937800813 0  353784.0322742948 5981044.538811012 0  358045.1698423899 5978741.391518688 0  328423.7350325213 6036912.015930048 0  366897.6876966125 6027277.723668203 0  347355.1745641421 5978532.307510624 0  376820.5060332146 5979033.270735624 0  349378.1778589479 6024378.632814493 0  327189.2282939323 6016451.253924556 0  338433.8773236172 6036753.902881841 0  350141.9760340559 5987605.90026687 0  363794.7083927878 5991713.491814731 0  350325.1285660182 6035273.515460094 0  382355.9358007369 5983507.499638396 0  327107.0747437811 59811
[...]
<PointData  Scalars="f_23565-0"> 
<DataArray  type="Float64"  Name="f_23565-0"  format="ascii">2.1576796689590514e+07  2.1705331539152600e+07  2.1972792659781180e+07  2.1755925078839861e+07  2.2115366303976558e+07  2.1744692087908037e+07  2.1917312565781064e+07  2.1712707853531167e+07  2.2722153109011352e+07  2.1642475802057989e+07  2.1980883653524444e+07  2.2074466892965473e+07  2.1738844467987455e+07  2.1852953768502526e+07  2.1776722867345668e+07  2.1979180311941579e+07  2.1884819686895687e+07  2.1963962999146909e+07  2.2217190503374115e+07  2.2408873003384765e+07  2.1922396077530559e+07  2.1623907391771596e+07  2.1754571804567188e+07  2.1843612247948006e+07  2.1765324488838177e+07  2.2256058271552190e+07  2.1821424970348421e+07  2.2212116082225978e+07  2.2012026640757531e+07  2.1811919955843944e+07  2.2027682739400655e+07  2.1653149214886267e+07  2.1701094580768213e+07  2.2011873777953893e+07  2.1700927177040767e+07  2.1744789975275155e+07  2.2273392533485372e+07  2.2094585889009714e+07  2.2808475411230139e+07  2.2076438729689840e+07  2.2215885020592801e+07  2.1796712601260670e+07  2.1715600387442850e+07  2.1790207401067294e+07  2.2002540162136976e+07  2.1594788537547845e+07  2.1589526151621707e+07  2.2134762664429098e+07  2.1755395566971343e+07  2.1959834809419274e+07  2.1829196593246832e+07  2.1801226632088643e+07  2.1915498138081469e+07  2.1898394569904935e+07  2.2264967265241865e+07  2.2761465905702010e+07  2.2197835433784306e+07  2.1976513759695131e+07  2.1724448196589921e+07  2.1756477660463173e+07  2.1741958993076246e+07  2.1963277666256074e+07  2.1669487177998830e+07  2.1848238182062663e+07  2.1777203172916956e+07  2.2132404848161370e+07  2.1991777840341747e+07  2.2058017517874397e+07  2.2153944946077935e+07  2.2089591861001879e+07  2.1749477385626890e+07  2.1913283124007147e+07  2.1908897261897285e+07  2.1766526228685986e+07  2.1953723425155897e+07  2.2094337883764774e+07  2.1847935790098723e+07  2.1600938632018205e+07  2.1743255784306034e+07  2.1662882814076014e+07  2.1626066048209824e+07  2.2436562916088291e+07  2.1732650175934561e+07  2.2049935114265539e+07  2.1880343488461819e+07  2.1752685473141789e+07  2.1735482653138883e+07  2.1787565717213556e+07  2.1720134091185912e+07  2.1781775687603790e+07  2.1839934251644708e+07  2.1859440226498883e+07  2.1774789979302026e+07  2.2059210927183930e+07  2.1998708396354951e+07  2.2110913514663421e+07  2.2572385183616012e+07  2.1719351218195528e+07  2.1772563052947775e+07  2.1988138480794765e+07  2.2071221543258328e+07  2.2297867367463537e+07  2.2281536251255780e+07  2.1618226713569820e+07  2.1717968971822135e+07  2.2123721701109368e+07  2.1947089096064489e+07  2.1984092101426553e+07  2.1651521164521452e+07  2.1955773769709446e+07  2.1985923887755916e+07  2.1894123842381600e+07  2.2107217614624713e+07  2.1833708407464117e+07  2.1895180230844673e+07  2.2608096366141412e+07  2.2383616992313672e+07  2.1725891760400467e+07  2.2189719773843244e+07  2.3105000618420120e+07  2.2137749941059493e+07  2.2777681202404115e+07  2.2317947186137665e+07  2.2167152641923063e+07  2.2210159942898612e+07  2.1671984271511964e+07  2.1996347720996749e+07  2.2033658676052283e+07  2.1668562303154394e+07  2.1581361808618203e+07  2.1797558226796858e+07  2.2096589356606018e+07  2.1754518400355849e+07  2.1854159298276685e+07  2.1798644185502727e+07  2.1750045723840561e+07  2.1758522997972354e+07  2.1748611986982036e+07  2.2014370079975791e+07  2.2103887015219696e+07  2.1936445445968892e+07  2.2508780740305416e+07  2.2052578862288695e+07  2.1811288645561114e+07  2.1843777279769637e+07  2.2348412714183297e+07  2.2120732455881938e+07  2.1993600025804393e+07  2.2015936869086996e+07  2.1766642169148691e+07  2.1859520426866256e+07  2.2030416762430716e+07  2.1580123138015509e+07  2.2473964374270022e+07  2.1753758974883955e+07  2.2217793859129094e+07  2.1967332973681428e+07  2.1762404684065726e+07  2.1615956192139518e+07  2.2035549167313535e+07  2.1830972837026931e+07  2.1726782134157792e+07  2.1980623306857754e+07  2.1708184412950560e+07  2.2071120747885033e+07  2.1749699007738281e+07  2.1764704768200587e+07  2.1798692647901379e+07  2.1786364907073811e+07  2.1879902551882874e+07  2.2276383702100892e+07  2.1686689948107485e+07  2.2242419736607801e+07  2.1907812339556694e+07  2.1764825966956776e+07  2.1695505980894230e+07  2.2403788847550038e+07  2.1601202140595246e+07  2.1830816414716903e+07  2.1765926560568422e+07  2.1796503222885955e+07  2.1763847051314525e+07  2.1662544020246822e+07  2.2144258631754365e+07  2.1697510634338126e+07  2.1985887528804824e+07  2.1915932156840794e+07  2.1859272486944489e+07  2.2142868268487059e+07  2.2567340388595376e+07  2.1756330174464751e+07  2.2145891105632793e+07  2.1778758244933836e+07  2.1686997455007102e+07  2.2281942950085405e+07  2.3108870738522712e+07  2.1710248562529329e+07  2.1809200783575013e+07  2.1798296742068406e+07  2.1584856947566729e+07  2.2174664860287059e+07  2.2070856242636371e+07  2.2131343982713133e+07  2.1927444310565192e+07  2.1976137447576869e+07  2.1944180445425786e+07  2.1974055541061208e+07  2.1746990171676245e+07  2.1729365429757681e+07  2.1884499219692346e+07  2.1756470577289090e+07  2.1604505817714807e+07  2.1978939282280929e+07  2.1692145735295411e+07  2.1974634658009153e+07  2.1645990483443942e+07  2.1837688889345229e+07  2.1784868741502553e+07  2.1768011210053336e+07  2.1979901167564061e+07  2.1889521288201369e+07  2.1840105655711178e+07  2.1945580377648748e+07  2.1982828408336300e+07  2.1740975786312368e+07  2.1722649600738768e+07  2.2020081841350611e+07  2.1738878198574625e+07  2.1638230400734380e+07  2.1623305619406208e+07  2.1725380702519380e+07  2.2123372288105961e+07  2.1733999491995107e+07  2.2200374058033232e+07  2.2032381627945784e+07  2.2031152692320224e+07  2.1812229856981318e+07  2.2150890023846626e+07  2.2170253932521366e+07  2.2019100411799893e+07  2.2056832231051628e+07  2.1598786965551700e+07  2.1883775178185787e+07  2.1898717798178211e+07  2.2241599244676463e+07  2.1784148904673111e+07  2.1690645122785892e+07  2.1626981369619939e+07  2.2018431309142128e+07  2.2506989830156062e+07  2.1695055667437598e+07  2.2324799177080788e+07  2.1748572393471900e+07  2.1797471075585425e+07  2.1761537694442157e+07  2.2571249721583717e+07  2.2045167329466376e+07  2.2028744562372290e+07  2.2153872743003696e+07  2.1741641983441219e+07  2.1724374232425265e+07  2.1775714137095843e+07  2.1740114855229117e+07  2.1760645873231184e+07  2.1929775139497336e+07  2.2228370499403894e+07  2.1640323734499414e+07  2.2404450309108473e+07  2.1704317829090543e+07  2.1913238557649434e+07  2.2303009705926280e+07  2.2696754111360759e+07  2.1934433592455983e+07  2.1829663059169903e+07  2.1999863897837121e+07  2.2115145821774468e+07  2.2106964081443667e+07  2.2155237787932437e+07  2.2349430841369499e+07  2.1896851461860273e+07  2.1825367914198395e+07  2.1877331212228846e+07  2.2020431583101265e+07  2.2165710694058388e+07  2.2432770581159443e+07  2.1782681604026005e+07  2.2074988346771818e+07  2.1616359626895517e+07  2.1801136430157572e+07  2.1966644620049488e+07  2.2097436286673091e+07  2.2041560636644822e+07  2.1760708500918690e+07  2.1903046749130435e+07  2.1842117306607906e+07  2.2576752404398076e+07  2.1841409388941504e+07  2.1736094453909718e+07  2.1769121704753350e+07  2.2277555000853445e+07  2.1776588306851290e+07  2.1811528479329642e+07  2.1735201501410499e+07  2.1822136187599447e+07  2.1759766825830389e+07  2.1775696448112361e+07  2.1713200620383780e+07  2.2887206964330092e+07  2.1664266544034678e+07  2.2444802292973578e+07  2.1648787555732083e+07  2.1717337610826887e+07  2.1790290182681363e+07  2.2001522762111168e+07  2.1822150210799485e+07  2.1743232013557382e+07  2.1859190108279556e+07  2.2000576115802471e+07  2.1996132553700745e+07  2.1977879335063875e+07  2.1985420281708445e+07  2.2148267402335383e+07  2.2447902795430701e+07  2.2304126533705581e+07  2.1976878014334220e+07  2.2088547505319439e+07  2.1983384652842470e+07  2.1710063671255235e+07  2.1762058309735656e+07  2.1915469451169949e+07  2.2056893154389482e+07  2.2038772314305197e+07  2.1908584400891569e+07  2.1871801948222209e+07  2.1873088736058041e+07  2.1815924945137180e+07  2.2555501393912476e+07  2.2068161381580774e+07  2.1984036519768823e+07  2.1931061198345989e+07  2.2363138733455036e+07  2.2408333170774594e+07  2.2745553520613573e+07  2.2825090495995983e+07  2.1705847331625655e+07  2.2197004099821273e+07  2.1925599742806364e+07  2.1730101440287896e+07  2.1843499560132604e+07  2.2050029719932143e+07  2.1578078257842362e+07  2.1587087580651470e+07  2.2162509517472181e+07  2.1731404201907888e+07  2.1747011970586956e+07  2.2217215798284177e+07  2.1674257895487640e+07  2.2075149568294756e+07  2.1791213812966593e+07  2.2125221369497199e+07  2.2162730344374489e+07  2.1784002646543223e+07  2.1604314815945346e+07  2.2535013879462548e+07  2.2206736075890008e+07  2.2035069938242864e+07  2.1945108602172989e+07  2.1954829188053027e+07  2.1589450796162900e+07  2.1632300637035504e+07  2.1753686560494639e+07  2.2569594181668200e+07  2.2144891708436593e+07  2.1862724895154189e+07  2.1879560850228552e+07  2.1916766169040531e+07  2.1982017205331642e+07  2.1958374956567723e+07  2.1972863397975314e+07  2.2146464001445964e+07  2.2049370316643670e+07  2.1938754519734073e+07  2.1762000336399954e+07  2.1997099649567839e+07  2.2004428226441529e+07  2.1762234814116765e+07  2.2007454177002396e+07  2.2424384700229056e+07  2.2020206193035088e+07  2.1950112197474353e+07  2.1934425241647411e+07  2.1903620688807476e+07  2.1720913919719167e+07  2.1868655173876256e+07  2.2252994316737659e+07  2.1802365164599903e+07  2.1749446295412865e+07  2.1796242139516529e+07  2.1831313294041235e+07  2.1736702751017068e+07  2.1836263876021564e+07  2.1831159342208683e+07  2.1643004088368848e+07  2.1824971466873508e+07  2.2146864271598548e+07  2.2056098959046569e+07  2.2104582351796851e+07  2.2172051212007344e+07  2.2240748996190973e+07  2.1925176936651610e+07  2.2151641456593499e+07  2.1781451514540125e+07  2.1763364678273372e+07  2.2149431694134951e+07  2.1609356348351669e+07  2.2372319802776180e+07  2.3091255915924821e+07  2.1731188595965836e+07  2.1679582034949359e+07  2.2005218215807043e+07  2.1785617205343962e+07  2.2316057635425691e+07  2.1705836075539760e+07  2.1752443853914339e+07  2.1808819120678257e+07  2.1819227270583864e+07  2.1754572674158949e+07  2.2146432837689597e+07  2.2176243518640067e+07  2.2042917797489971e+07  2.2062447494345929e+07  2.1791766390286840e+07  2.2274074263974294e+07  2.2231356059242949e+07  2.2320087579616301e+07  2.2032895176822510e+07  2.1776557470491040e+07  2.2121735093556944e+07  2.2079503630807903e+07  2.1979917115202900e+07  2.2395019381171938e+07  2.1932422650539018e+07  2.1804878306082297e+07  2.2848524801452603e+07  2.1728727673461754e+07  2.1950510126601089e+07  2.2095258420841858e+07  2.2099028963534180e+07  2.1776712235201210e+07  2.1804443467617150e+07  2.1818687886278074e+07  2.3023694620888166e+07  2.2223428922495555e+07  2.2017930201823749e+07  2.2037666223222740e+07  2.2024020289613795e+07  2.1707350942217454e+07  2.2081714922999214e+07  2.1952277344827827e+07  2.2140272823597975e+07  2.1785239236546777e+07  2.1667498540575594e+07  2.1697595543491807e+07  2.1815731867918365e+07  2.1724973265729673e+07  2.1850488109331843e+07  2.1731113221633382e+07  2.1874621304026645e+07  2.1983328655635498e+07  2.2210168778900500e+07  2.1773785019879248e+07  2.1878477443375666e+07  2.1964185116098616e+07  2.1608072517736867e+07  2.2858422657272238e+07  2.1847155022640299e+07  2.1996936972457714e+07  2.1806395467053793e+07  2.2012751478792734e+07  2.2179454130884744e+07  2.1747004367781103e+07  2.2031390623170231e+07  2.2677263353632264e+07  2.1704238533351403e+07  2.1837468239924718e+07  2.1854570025467817e+07  2.1817664139364567e+07  2.1657371578423291e+07  2.2016330190482251e+07  2.2306629115701046e+07  2.3081724119730338e+07  2.2125033594146863e+07  2.1900188616209332e+07  2.1588225267824013e+07  2.2066699551389623e+07  2.1878015406988602e+07  2.2028138787382051e+07  2.1732833401639841e+07  2.1749066618534118e+07  2.1750473998016484e+07  2.2177664497125935e+07  2.1628588411824625e+07  2.1622023237815037e+07  2.1608733926735014e+07  2.1753365766154386e+07  2.2173166998985086e+07  2.2092726930992685e+07  2.2133103682781961e+07  2.1714189264955521e+07  2.1945908934934866e+07  2.1920102044728778e+07  2.2085750404176079e+07  2.1697565849935770e+07  2.2122617432267364e+07  2.2170183561652955e+07  2.2079540130140163e+07  2.1885376014190111e+07  2.1948967772835288e+07  2.1926099779768694e+07  2.2533952813562561e+07  2.2375724308978945e+07  2.2326493186669443e+07  2.1963923619302891e+07  2.1669982655029982e+07  2.2501982125939410e+07  2.1691793713417422e+07  2.1819492751146853e+07  2.1759200998178609e+07  2.1755948226656009e+07  2.1977986937457155e+07  2.1981867939370871e+07  2.1758176835655965e+07  2.1975386413959015e+07  2.1984456515887044e+07  2.1613946502443988e+07  2.1755813374104358e+07  2.2009815422798835e+07  2.2001142195585515e+07  2.1948015223359793e+07  2.1706036020159621e+07  2.1706627049240232e+07  2.1842679790390141e+07  2.1579549252405200e+07  2.2228327375146225e+07  2.2267672844585177e+07  2.2104451364928801e+07  2.2331491355839148e+07  2.1915189442340650e+07  2.2358638934337694e+07  2.1751141629980523e+07  2.1962331933708891e+07  2.1966292687315192e+07  2.2005833028276481e+07  2.2007896154325027e+07  2.1758061647824395e+07  2.2149362891868312e+07  2.1756722043038122e+07  2.1759240105782554e+07  2.1769457000386741e+07  2.1769754824683521e+07  2.1759053711498540e+07  2.1777049831840120e+07  2.2030075840997234e+07  2.1783933898407467e+07  2.1632561604079776e+07  2.1893781244048789e+07  2.1879380331755999e+07  2.1866140661552750e+07  2.2262543627644602e+07  2.2095845199293435e+07  2.1644303703451037e+07  2.1677795108251844e+07  2.1844050706521720e+07  2.1774890714839283e+07  2.1715617697689500e+07  2.1810293139075093e+07  2.1768809001123205e+07  2.1679600487851240e+07  2.1874100033637226e+07  2.1895707597546246e+07  2.1839310234952871e+07  2.2888210880132988e+07  2.2581313591418967e+07  2.2024631076103084e+07  2.1758590367191534e+07  2.1748985404373553e+07  2.1765911542307660e+07  2.1760686715218153e+07  2.1756180089322757e+07  2.1736377036626823e+07  2.1591900358443540e+07  2.2478671566251501e+07  2.2587712098365236e+07  2.1848860609906975e+07  2.1869728584627330e+07  2.1918242821839880e+07  2.1673818309223618e+07  2.1656936564920086e+07  2.1747345630517986e+07  2.2229779691986233e+07  2.2145082916342899e+07  2.2183245440033413e+07  2.2139310064336710e+07  2.2243144119232140e+07  2.2274311615279265e+07  2.2384243062593035e+07  2.2077143415830325e+07  2.1764830696313459e+07  2.1779331967199568e+07  2.1761811000684854e+07  2.1779801812770370e+07  2.1974854208865918e+07  2.1979523396529373e+07  2.1686686202018399e+07  2.1732882512516372e+07  2.2054931710608415e+07  2.1856589420839339e+07  2.1989844532212052e+07  2.1711411235757571e+07  2.1775285983233027e+07  2.2093367027471785e+07  2.1744709429675605e+07  2.2129929823581744e+07  2.1984583960849334e+07  2.1993199385936677e+07  2.1979064584619783e+07  2.2071405824353721e+07  2.1954827371726554e+07  2.2068409487978920e+07  2.1746756915338274e+07  2.1793504594307359e+07  2.1784289431321133e+07  2.1741403363147199e+07  2.1596363961471811e+07  2.1612547580586158e+07  2.1598011563344270e+07  2.1783715157490276e+07  2.2006506301832877e+07  2.1900668842834793e+07  2.1909852451470871e+07  2.2081505999402784e+07  2.1983664029127445e+07  2.1774175270839524e+07  2.1756615139036283e+07  2.1837819095998183e+07  2.1840065241066672e+07  2.1845132864549477e+07  2.1702895245094005e+07  2.1674830570240147e+07  2.1781417739334151e+07  2.1718249828942612e+07  2.1684138230648734e+07  2.1668301035315871e+07  2.2363923142168846e+07  2.2091351585153319e+07  2.1679989089568902e+07  2.2276777651903663e+07  2.1762480021133490e+07  2.1796033919835374e+07  2.1739422749210957e+07  2.2124744657187779e+07  2.2640414608809903e+07  2.1584071204553537e+07  2.1582874047284428e+07  2.2209566165351506e+07  2.1601342431363791e+07  2.1772458555912863e+07  2.2407164820435151e+07  2.2604176599884517e+07  2.2608713756815501e+07  2.1799697240715720e+07  2.1659082852650497e+07  2.2615897387133241e+07  2.2144344393466718e+07  2.1646335558297176e+07  2.2733412660472192e+07  2.1805496297384452e+07  2.1582473787530422e+07  2.1991952848626129e+07  2.1761161683341239e+07  2.1828561871275984e+07  2.1824494679279666e+07  2.1721654123662397e+07  2.2047420899646420e+07  2.1647023912176885e+07  2.2441273494366590e+07  2.1983950054355271e+07  2.2781954544205070e+07  2.1879771101665378e+07  2.1753897950776532e+07  2.2357755599799801e+07  2.1873183338078145e+07  2.2133676690696143e+07  2.1746648329726581e+07  2.2033428987838678e+07  2.1817216135789715e+07  2.1783586550068118e+07  2.2041775392457880e+07  2.1881402690156884e+07  2.1638451674142335e+07  2.2128445216628790e+07  2.2143545930686440e+07  2.2055837971899975e+07  2.2391515844806548e+07  2.1644268273735795e+07  2.1929811672693945e+07  2.1802150557586394e+07  2.1758183560996287e+07  2.2198706184495043e+07  2.1977528106441706e+07  2.1978835921027880e+07  2.1789684072743341e+07  2.1810210841898572e+07  2.1832948269188028e+07  2.1885297119674604e+07  2.1866802460056808e+07  2.2917424327211585e+07  2.2539638751842629e+07  2.2271298810241036e+07  2.2310392141407713e+07  2.2251411008775584e+07  2.2323135677600335e+07  2.2235887294719890e+07  2.1858660788368665e+07  2.1930236917823818e+07  2.2079818623888601e+07  2.1757057663540624e+07  2.1817657242923658e+07  2.1779841045356013e+07  2.2118807541748304e+07  2.2096548649937119e+07  2.2118939616836928e+07  2.2264376890164077e+07  2.1633902206216477e+07  2.1624504480233848e+07  2.1938945082800433e+07  2.2021264289480291e+07  2.2000132228485912e+07  2.1744816168461710e+07  2.1728982524965111e+07  2.1909988979292933e+07  2.1975389915587451e+07  2.1973271861114983e+07  2.1681398592901081e+07  2.1947192083631389e+07  2.2051823219784878e+07  2.2068600885092739e+07  2.2122444013938878e+07  2.2031904438227821e+07  2.2074996159913525e+07  2.2042180011265207e+07  2.2066539040549885e+07  2.1590630471490055e+07  2.1743332949285101e+07  2.1752138435700215e+07  2.2004206165674437e+07  2.1815522522305220e+07  2.1634837706458885e+07  2.1719957385918573e+07  2.1716635983986672e+07  2.1729530200590510e+07  2.1908046391702183e+07  2.1873224802103855e+07  2.1869337942361593e+07  2.1938797490743164e+07  2.2152525900499314e+07  2.2147239042352173e+07  2.1862223029264003e+07  2.1980659206354901e+07  2.1721351703622133e+07  2.2192355795231014e+07  2.1632326352103956e+07  2.1686729477214426e+07  2.1919873004586574e+07  2.1945817597228311e+07  2.1981199174405526e+07  2.1967561514488671e+07  2.1991274098933291e+07  2.1757262251105040e+07  2.1797326049210284e+07  2.1773192603560731e+07  2.1875340754669614e+07  2.1726032694140203e+07  2.1577610390808694e+07  2.1954782628202461e+07  2.1979475918293748e+07  2.1613704823826782e+07  2.1736136579552863e+07  2.1755728072950672e+07  2.1829663088516824e+07  2.1901672180877011e+07  2.1931681389113951e+07  2.1970044272313256e+07  2.1702848261870570e+07  2.1975173800153613e+07  2.1716251634209547e+07  2.1657845396577735e+07  2.1756520150632229e+07  2.1734838887536239e+07  2.1774470137481954e+07  2.2687758862011291e+07  2.1978195137339216e+07  2.2127938588869046e+07  2.1836927805394068e+07  2.1730480145872347e+07  2.1652687209207464e+07  2.1802888907566249e+07  2.1593354103171848e+07  2.2232345744898915e+07  2.1848114703684095e+07  2.1742857181787010e+07  2.2171599055577245e+07  2.1729729082874730e+07  2.2141250643286623e+07  2.1783735360369679e+07  2.2192617770829059e+07  2.1758772543732371e+07  2.2380910671356160e+07  2.2043304874821201e+07  2.2014238910483822e+07  2.1966090383370191e+07  2.1722538271026146e+07  2.2208629238134690e+07  2.1987322165074222e+07  2.1947884928932335e+07  2.1665777568307340e+07  2.1895812015389629e+07  2.1757493775056694e+07  2.1721660514263526e+07  2.1710795