<?xml version="1.0"?>
<VTKFile type="UnstructuredGrid"  version="0.1"  >
<UnstructuredGrid>
<Piece  NumberOfPoints="3002" NumberOfCells="5870">
<Points>
<DataArray  type="Float64"  NumberOfComponents="3"  format="ascii">323455.6100285493 6048753.88242996 0  323455.6100285493 5954782.59950515 0  405920.1480513444 5954782.59950515 0  405920.1480513444 6048753.88242996 0  405920.1480513444 6001768.240967555 0  323455.6100285493 6001768.240967555 0  364687.8790399469 5954782.59950515 0  364687.8790399469 6048753.88242996 0  364687.8790399469 5996367.117560402 0  323455.6100285493 6025261.061698757 0  382226.6271443229 6022560.499995181 0  405920.1480513444 5978275.420236353 0  323455.6100285493 5978275.420236353 0  353897.8957397301 6022560.499995181 0  344071.7445342481 5954782.59950515 0  385304.0135456456 5954782.59950515 0  405920.1480513444 6025261.061698757 0  354379.8117870975 5975574.858532775 0  381582.8168806895 5978840.396198289 0  384950.2598624413 6001768.240967555 0  344643.0480768835 6003429.02033719 0  344071.7445342481 6048753.88242996 0  385304.0135456456 6048753.88242996 0  339717.0321562298 5986078.187627405 0  337515.036058786 5969821.016310448 0  368062.2614420265 6013076.224998265 0  368062.2614420265 6032044.774992097 0  393987.6142659165 5988729.699941677 0  405920.1480513444 6013514.651333156 0  392856.2821527076 6034589.119828064 0  393514.9611654527 5968369.338068204 0  339399.8087404341 6032061.482581838 0  323455.6100285493 6013514.651333156 0  374995.9462927963 5965504.865595459 0  354379.8117870975 6037976.901948514 0  338123.9088969378 6017031.529131207 0  367397.3120126425 5982072.559192053 0  351882.5752379905 5991998.990225234 0  376945.425450199 5991232.708824487 0  392265.0061656896 6013300.936254065 0  357029.7426706699 6006608.947964352 0  380093.6207558212 6036880.127749795 0  323455.6100285493 5966529.009870751 0  405920.1480513444 6037007.472064359 0  405920.1480513444 5966529.009870751 0  323455.6100285493 6037007.472064359 0  333763.6772813987 6048753.88242996 0  405920.1480513444 5990021.830601954 0  323455.6100285493 5990021.830601954 0  362879.3643765316 5966837.319094267 0  348367.6438548031 5965604.161682394 0  334493.1989038612 5996935.948935225 0  395068.5043068817 6023875.372615605 0  348216.0324377587 6013504.844950221 0  379305.9090074943 6011603.390019651 0  372523.5158233726 6003480.000732267 0  395435.2039568929 5999384.346358113 0  395612.080798495 5954782.59950515 0  333763.6772813987 5954782.59950515 0  395612.080798495 6048753.88242996 0  374995.9462927963 6048753.88242996 0  374995.9462927963 5954782.59950515 0  354379.8117870975 6048753.88242996 0  354379.8117870975 5954782.59950515 0  335074.5981535012 6007206.680367459 0  391925.2695590468 5978591.908877409 0  371969.1707190623 6022560.499995181 0  383872.162544519 5969415.106147043 0  358038.7139835292 5984533.09712744 0  369699.869182786 5973102.2359358 0  369841.9126663716 6041099.453006387 0  343176.7440329155 5994428.220622956 0  362933.5332293962 6024385.235173292 0  330640.1760208776 5984148.625419154 0  348684.7494355051 5983110.856817525 0  399094.9690929834 6007537.420809742 0  345447.6324516311 5974162.84917082 0  332859.7749513451 6039150.972778062 0  344517.044630671 6024057.945416138 0  332973.1214415312 6025037.914505113 0  341428.0126373461 6040493.820728126 0  385874.264691618 5992757.40885039 0  350337.3662538711 6030387.535304286 0  359887.2373602368 6016186.250094838 0  377097.8989316926 6029115.217702097 0  338917.7109078235 5961484.016839475 0  329495.5261590715 5972402.215053552 0  336644.7280634616 5978216.610794215 0  330688.6715098422 5962480.256438018 0  359899.8039476132 6031963.415584587 0  399746.255941904 6030426.523907755 0  385511.6875144855 6030368.508996127 0  387377.735783329 6040763.821024337 0  398832.192399829 5974431.100387635 0  387992.9498994246 5962432.032572681 0  405920.1480513444 5984148.625419153 0  364925.7641745284 6005782.953640081 0  361769.877068089 6041226.651684469 0  398452.9199001931 6040850.732439541 0  398946.6205243983 5962252.502309519 0  362305.5577564609 5975984.89789681 0  356822.8065216601 5998470.186307689 0  386900.7115926162 5984820.732438302 0  329528.0119279922 6032067.230024892 0  331139.6939744562 6013813.572928222 0  398457.5876798834 5982541.698799337 0  405920.1480513444 6019387.856515957 0  398685.5166750694 6017257.578706384 0  348587.9424884976 6042755.309150081 0  369841.9126663716 5960143.732550304 0  380149.979919221 5960143.732550304 0  359533.8454135222 5960172.384722514 0  377147.8814772839 5972649.581024994 0  341756.3455763521 6010124.092444684 0  355615.8176864882 5966311.193813809 0  369144.4338274571 5989807.770003954 0  375185.9047422862 5983510.422041401 0  323455.6100285493 6007641.446150355 0  391856.7960121195 6005888.565703365 0  371978.0245217044 5996361.134308098 0  405920.1480513444 5995895.035784755 0  378877.1880032702 5998073.745937059 0  359056.6617417652 5991643.489540118 0  399278.8743430426 5993436.466134224 0  386116.8775939071 6009922.097099247 0  323455.6100285493 6019387.856515957 0  388994.7833819839 6019826.789191471 0  348897.6207366391 5998116.079250046 0  345456.3301153719 6035064.814295612 0  323455.6100285493 6042880.677247159 0  334124.3013408988 5990072.953472659 0  377097.8989316926 6018059.782440464 0  323455.6100285493 5995895.035784755 0  342871.8474798963 5980154.238874755 0  373596.9793292385 6035659.183886081 0  380149.979919221 6048753.88242996 0  376327.9292813152 6042294.581731233 0  329163.3548105369 6004704.843558955 0  350303.9432136903 6007093.032074522 0  383982.6552804571 6015912.664375832 0  345515.490569988 5988567.439252969 0  379019.812877927 6004678.052169549 0  365541.9137639466 6018750.691894444 0  349225.7781606728 5954782.59950515 0  352493.3399767278 5960815.406895458 0  363683.8130458911 5986976.225872464 0  386666.791301207 5975084.583584332 0  368937.6553346639 5966171.092344863 0  400003.9882214358 5968352.273777306 0  328776.0063842635 5992958.433193355 0  339958.4428758043 5999572.344589042 0  354577.7732363954 6012555.454074449 0  328609.6436549741 6048753.88242996 0  382053.0280278458 5988228.496807038 0  330708.6817934912 5978212.973348036 0  372084.7734679543 5978495.086505585 0  358568.2738174705 5971419.415228934 0  328931.2672829705 5998832.905089681 0  323455.6100285493 6031134.266881558 0  405920.1480513444 5972402.215053552 0  405920.1480513444 6031134.266881558 0  323455.6100285493 5972402.215053552 0  405920.1480513444 5960655.804687951 0  323455.6100285493 5960655.804687951 0  405920.1480513444 6007641.446150355 0  323455.6100285493 5984148.625419153 0  405920.1480513444 6042880.677247159 0  346648.7613474604 5960023.05127712 0  342415.3891593561 5966358.988213831 0  350507.6510228226 5971111.740321856 0  391773.9667214506 5994456.117700323 0  338875.8905424621 6026088.827345025 0  361429.1735454847 6010511.262533597 0  389395.7028803263 6025805.543023561 0  392895.6464692951 6043315.288173481 0  332846.8296575367 6019296.633131165 0  373337.4404588729 6009693.515402478 0  336544.3064612215 6043648.151399015 0  348610.2411382072 6019567.839754772 0  381943.4597763228 6042183.394750732 0  355630.0631288611 6028071.82801846 0  363941.5238882306 6035967.852698964 0  328179.67203552 6022271.326978176 0  401066.2857736665 5998807.415073814 0  344387.1099621175 6029612.545574771 0  393435.2235156003 5960233.556458537 0  400735.9970493424 6022675.638064924 0  393708.5772019727 6029179.837160029 0  400609.0696943338 5987857.851798974 0  361753.6614662939 6001152.171757337 0  400766.1144249197 6048753.88242996 0  353363.0524357285 6002630.165620538 0  343248.328463803 6018790.640008039 0  356419.8105951758 6043365.392189237 0  390234.385899412 6000759.497967276 0  368336.1168551637 6000220.532318851 0  328609.6436549741 5954782.59950515 0  387520.8298169724 6035372.992507171 0  400588.0280660195 6035823.299583429 0  329021.6598427091 6043194.252697862 0  393371.710206733 5983576.325812268 0  393638.9721728675 5973623.513063556 0  371727.9212466564 6017113.044457142 0  364687.2762977295 5959941.212693035 0  374995.9462927962 5960346.83186599 0  369841.9126663716 5954782.59950515 0  400766.1144249197 5954782.59950515 0  338917.7109078234 5954782.59950515 0  369841.9126663716 6048753.88242996 0  359533.8454135222 5954782.59950515 0  390458.0471720704 6048753.88242996 0  338917.7109078234 6048753.88242996 0  390458.0471720704 5954782.59950515 0  359533.8454135222 6048753.88242996 0  380149.979919221 5954782.59950515 0  349225.7781606728 6048753.88242996 0  339867.4956514095 6005339.817053361 0  333737.9460226952 6002130.523287664 0  336955.8140048417 6012008.440073739 0  377097.8989316926 6023232.32559834 0  371748.9790486701 6028016.629988787 0  338146.5171983215 5993298.164761053 0  355016.8390227688 6017610.913088997 0  393953.1528190996 6018968.416019509 0  335185.8133477239 5965142.63403323 0  328616.6041642396 5967263.80307608 0  380314.9487662361 5965460.362415641 0  354622.8993466098 6032976.142863722 0  328521.4725131759 6027215.026914048 0  334465.0783479523 6034070.534389696 0  328123.6212682287 6009699.206425843 0  381889.5169855529 5973936.741901617 0  359122.3484437474 6036790.002992895 0  386341.6533148278 5979963.279841923 0  400798.2159679119 6012477.871311778 0  388538.3765260249 5967461.292146791 0  340833.8784183678 5975728.708105717 0  355307.6239213505 5988552.151815021 0  362181.4274823388 5981261.937800813 0  353784.0322742948 5981044.538811012 0  358045.1698423899 5978741.391518688 0  328423.7350325213 6036912.015930048 0  366897.6876966125 6027277.723668203 0  347355.1745641421 5978532.307510624 0  376820.5060332146 5979033.270735624 0  349378.1778589479 6024378.632814493 0  327189.2282939323 6016451.253924556 0  338433.8773236172 6036753.902881841 0  350141.9760340559 5987605.90026687 0  363794.7083927878 5991713.491814731 0  350325.1285660182 6035273.515460094 0  382355.9358007369 5983507.499638396 0  327107.0747437811 59811
[...]
<PointData  Scalars="f_3058-0"> 
<DataArray  type="Float64"  Name="f_3058-0"  format="ascii">2.1256423178483639e+07  2.1256429372222904e+07  2.1256437848114710e+07  2.1256429066632822e+07  2.1256441484901659e+07  2.1256430054029040e+07  2.1256436529955991e+07  2.1256427773045883e+07  2.1256547562807132e+07  2.1256425757865235e+07  2.1256436999147326e+07  2.1256440924618039e+07  2.1256430417812772e+07  2.1256432936727691e+07  2.1256431861784045e+07  2.1256438231131274e+07  2.1256433505678229e+07  2.1256438469916239e+07  2.1256445845593859e+07  2.1256450768084813e+07  2.1256436217923634e+07  2.1256424784741450e+07  2.1256429089700811e+07  2.1256434067626692e+07  2.1256431453600518e+07  2.1256446913820744e+07  2.1256431601241197e+07  2.1256445208116341e+07  2.1256437851982027e+07  2.1256431039105766e+07  2.1256439637959454e+07  2.1256425954569824e+07  2.1256428136878718e+07  2.1256439502362441e+07  2.1256427465265848e+07  2.1256429509639982e+07  2.1256449096164361e+07  2.1256443113218788e+07  2.1256670679241437e+07  2.1256440006277405e+07  2.1256446016149823e+07  2.1256430606274515e+07  2.1256429705026969e+07  2.1256430252441831e+07  2.1256438762616720e+07  2.1256423879560009e+07  2.1256423613415845e+07  2.1256442537821453e+07  2.1256430776401605e+07  2.1256438065689430e+07  2.1256433693489898e+07  2.1256432221442830e+07  2.1256434583287939e+07  2.1256434834753532e+07  2.1256446903392173e+07  2.1256641194612559e+07  2.1256444156377748e+07  2.1256438015307266e+07  2.1256430043585524e+07  2.1256429104485527e+07  2.1256428720865782e+07  2.1256437889805082e+07  2.1256426327719782e+07  2.1256434290780026e+07  2.1256431001186047e+07  2.1256442929255344e+07  2.1256437573480487e+07  2.1256440775783010e+07  2.1256445449113399e+07  2.1256442317537449e+07  2.1256429032390736e+07  2.1256436339143556e+07  2.1256434753970221e+07  2.1256431313819375e+07  2.1256438135947991e+07  2.1256440632841595e+07  2.1256434373295702e+07  2.1256424061213236e+07  2.1256429212547909e+07  2.1256426460246913e+07  2.1256424901418149e+07  2.1256450951946855e+07  2.1256428679325067e+07  2.1256439696541097e+07  2.1256433574287273e+07  2.1256431028273486e+07  2.1256430369710539e+07  2.1256432176075723e+07  2.1256429882535193e+07  2.1256430291465528e+07  2.1256431974490952e+07  2.1256432743988886e+07  2.1256429782917246e+07  2.1256440532254975e+07  2.1256438811443657e+07  2.1256441959203076e+07  2.1256418311362334e+07  2.1256428039891582e+07  2.1256429653220713e+07  2.1256438348213710e+07  2.1256442093474317e+07  2.1256450659123052e+07  2.1256447819513638e+07  2.1256424766655307e+07  2.1256428708464522e+07  2.1256442462600596e+07  2.1256435634128198e+07  2.1256436895696335e+07  2.1256425744427513e+07  2.1256437742663499e+07  2.1256438537302315e+07  2.1256435824775696e+07  2.1256442546109557e+07  2.1256432823859710e+07  2.1256435946295138e+07  2.1256462664149232e+07  2.1256451260233924e+07  2.1256429198252544e+07  2.1256443668736786e+07  2.1272798986559905e+07  2.1256442413910132e+07  2.1256432421126597e+07  2.1256451671090860e+07  2.1256443464900345e+07  2.1256444462929949e+07  2.1256426941643253e+07  2.1256437390913997e+07  2.1256440480983313e+07  2.1256426419272672e+07  2.1256423356174994e+07  2.1256432297005408e+07  2.1256441172361068e+07  2.1256430584521595e+07  2.1256434555806942e+07  2.1256430736219469e+07  2.1256428966085449e+07  2.1256429294814114e+07  2.1256430094050735e+07  2.1256439096960463e+07  2.1256441143662605e+07  2.1256437392003872e+07  2.1256454371639118e+07  2.1256439765417445e+07  2.1256433046006426e+07  2.1256434161749359e+07  2.1256452828575175e+07  2.1256442691004135e+07  2.1256439057502266e+07  2.1256439197788898e+07  2.1256431103229247e+07  2.1256434198541000e+07  2.1256439219753843e+07  2.1256423292492528e+07  2.1256474540935669e+07  2.1256430956871815e+07  2.1256446469352223e+07  2.1256438470804546e+07  2.1256430776139222e+07  2.1256424708896551e+07  2.1256439765981618e+07  2.1256431657410838e+07  2.1256430058140099e+07  2.1256438090050209e+07  2.1256429465770222e+07  2.1256439891711928e+07  2.1256430705047268e+07  2.1256429370809354e+07  2.1256432622795098e+07  2.1256432205120705e+07  2.1256435487283777e+07  2.1256446979036048e+07  2.1256427240001395e+07  2.1256446194832150e+07  2.1256434370976962e+07  2.1256429405635800e+07  2.1256427749914590e+07  2.1256453087410923e+07  2.1256424028260328e+07  2.1256432308595009e+07  2.1256429510831762e+07  2.1256430882486731e+07  2.1256429603577342e+07  2.1256426529571354e+07  2.1256442507581394e+07  2.1256427513275445e+07  2.1256438331594869e+07  2.1256434574671678e+07  2.1256432667329714e+07  2.1256442895399392e+07  2.1256570940285306e+07  2.1256429085523907e+07  2.1256444008064382e+07  2.1256430593398508e+07  2.1256426937237624e+07  2.1256446599553853e+07  2.1286788698337376e+07  2.1256429545122527e+07  2.1256430980595712e+07  2.1256430537676331e+07  2.1256423473271206e+07  2.1256444178212266e+07  2.1256440978800654e+07  2.1256442536961842e+07  2.1256436882335320e+07  2.1256438317151263e+07  2.1256437348299485e+07  2.1256437900807831e+07  2.1256430831170231e+07  2.1256428318530720e+07  2.1256435484274097e+07  2.1256429126607426e+07  2.1256424124418937e+07  2.1256438149739098e+07  2.1256427088468302e+07  2.1256438169684220e+07  2.1256425533514146e+07  2.1256433180761404e+07  2.1256431460144814e+07  2.1256430495851640e+07  2.1256437069712881e+07  2.1256433965395909e+07  2.1256433737877652e+07  2.1256436195712920e+07  2.1256436873305079e+07  2.1256430610169712e+07  2.1256429951117098e+07  2.1256439641526230e+07  2.1256428830890261e+07  2.1256425561124489e+07  2.1256424900596511e+07  2.1256429109586012e+07  2.1256442897094727e+07  2.1256428594180208e+07  2.1256445209019434e+07  2.1256438536122009e+07  2.1256439829337656e+07  2.1256433090013061e+07  2.1256445356694531e+07  2.1256445807925101e+07  2.1256440509577710e+07  2.1256441782159634e+07  2.1256424017675251e+07  2.1256433820351634e+07  2.1256436176968820e+07  2.1256446792298183e+07  2.1256430576158471e+07  2.1256427678179659e+07  2.1256424980602965e+07  2.1256440436367955e+07  2.1256459172230020e+07  2.1256427311163127e+07  2.1256449960619636e+07  2.1256430721458111e+07  2.1256432405547980e+07  2.1256431043294206e+07  2.1256563786387473e+07  2.1256440692420527e+07  2.1256440433505192e+07  2.1256444721150815e+07  2.1256428730643399e+07  2.1256428177895471e+07  2.1256429976227906e+07  2.1256430560629547e+07  2.1256431258345865e+07  2.1256435544512816e+07  2.1256445973106645e+07  2.1256425573519394e+07  2.1256454030016840e+07  2.1256427971787255e+07  2.1256435646070141e+07  2.1256448364727199e+07  2.1256409428406283e+07  2.1256436889119253e+07  2.1256433725822158e+07  2.1256439519393772e+07  2.1256441415420428e+07  2.1256441002154108e+07  2.1256442647647448e+07  2.1256448810784355e+07  2.1256436043405812e+07  2.1256432352263916e+07  2.1256435184520423e+07  2.1256439675052907e+07  2.1256443627504174e+07  2.1256456445647333e+07  2.1256430019342113e+07  2.1256440030645270e+07  2.1256424536964353e+07  2.1256432718859803e+07  2.1256436741678584e+07  2.1256441609455429e+07  2.1256438832162391e+07  2.1256429282892231e+07  2.1256434307022512e+07  2.1256432187833745e+07  2.1256479590846166e+07  2.1256432080720440e+07  2.1256430450200312e+07  2.1256431600553360e+07  2.1256446412995372e+07  2.1256431733381592e+07  2.1256432979578253e+07  2.1256430327075675e+07  2.1256431673896588e+07  2.1256429210632306e+07  2.1256429753007378e+07  2.1256429633938130e+07  2.1256436940607861e+07  2.1256426161991104e+07  2.1256453679278839e+07  2.1256425684425171e+07  2.1256429792351399e+07  2.1256430346943367e+07  2.1256438975626819e+07  2.1256431526991431e+07  2.1256428850854162e+07  2.1256433057045721e+07  2.1256438772085983e+07  2.1256438575528793e+07  2.1256438035662100e+07  2.1256436941202976e+07  2.1256444820902470e+07  2.1256458935061183e+07  2.1256452914100207e+07  2.1256437981395788e+07  2.1256441404863440e+07  2.1256438326448381e+07  2.1256429534376141e+07  2.1256429281942461e+07  2.1256436700632207e+07  2.1256440417135440e+07  2.1256439936218388e+07  2.1256436525138013e+07  2.1256433063172214e+07  2.1256433121868018e+07  2.1256431157241940e+07  2.1256464039471429e+07  2.1256440973783676e+07  2.1256438410020750e+07  2.1256435821200542e+07  2.1256449556586199e+07  2.1256503762600176e+07  2.1256617152450800e+07  2.1256454721187193e+07  2.1256427554932371e+07  2.1256445017823510e+07  2.1256435036388211e+07  2.1256428831709035e+07  2.1256432316928647e+07  2.1256440678804263e+07  2.1256423228049755e+07  2.1256423578895792e+07  2.1256444444476686e+07  2.1256429121394549e+07  2.1256429824590739e+07  2.1256447676935893e+07  2.1256426548799142e+07  2.1256442567522146e+07  2.1256430334739812e+07  2.1256442607730851e+07  2.1256443661301494e+07  2.1256432120059285e+07  2.1256424252816055e+07  2.1256459041349702e+07  2.1256444649907757e+07  2.1256439769275893e+07  2.1256435578203008e+07  2.1256437812579624e+07  2.1256423620702352e+07  2.1256425078403961e+07  2.1256429101424117e+07  2.1256453637759019e+07  2.1256442827141132e+07  2.1256434781806670e+07  2.1256435372517064e+07  2.1256436618661914e+07  2.1256438573484957e+07  2.1256437774160840e+07  2.1256438158300143e+07  2.1256442289651372e+07  2.1256439642181266e+07  2.1256437419784255e+07  2.1256429349841408e+07  2.1256438951739002e+07  2.1256439843042776e+07  2.1256431356743958e+07  2.1256439038933326e+07  2.1256455660354070e+07  2.1256438283818118e+07  2.1256435786818676e+07  2.1256437067743324e+07  2.1256436107464999e+07  2.1256429874288432e+07  2.1256435063829396e+07  2.1256446974637713e+07  2.1256431813411716e+07  2.1256430023054678e+07  2.1256430932797089e+07  2.1256433530080453e+07  2.1256428906697389e+07  2.1256432611696042e+07  2.1256432033156861e+07  2.1256425524037074e+07  2.1256431556737836e+07  2.1256442796094894e+07  2.1256439616610710e+07  2.1256442100432605e+07  2.1256444523468684e+07  2.1256448744222350e+07  2.1256435180704784e+07  2.1256442638761532e+07  2.1256430102284718e+07  2.1256429491858941e+07  2.1256443224998202e+07  2.1256424338829976e+07  2.1256451959529467e+07  2.1290543023449838e+07  2.1256430274450369e+07  2.1256426704734925e+07  2.1256438135004699e+07  2.1256431019575279e+07  2.1256448904111285e+07  2.1256427604375932e+07  2.1256429032059960e+07  2.1256430894633584e+07  2.1256431255882073e+07  2.1256430869142160e+07  2.1256442711947851e+07  2.1256443920061685e+07  2.1256438912630111e+07  2.1256439575143386e+07  2.1256430321566615e+07  2.1256446789514277e+07  2.1256446009194758e+07  2.1256449891495507e+07  2.1256440408776075e+07  2.1256431374800000e+07  2.1256442316669419e+07  2.1256441091877386e+07  2.1256437657722816e+07  2.1256451408982050e+07  2.1256435505720261e+07  2.1256432088612605e+07  2.1256755131505772e+07  2.1256430174441412e+07  2.1256438034476530e+07  2.1256441705549944e+07  2.1256442454348657e+07  2.1256431605021443e+07  2.1256432447315164e+07  2.1256433302169353e+07  2.1262583571727615e+07  2.1256445383917410e+07  2.1256439232229948e+07  2.1256439149902675e+07  2.1256439665810820e+07  2.1256428371738300e+07  2.1256441627360798e+07  2.1256435812794425e+07  2.1256442855364446e+07  2.1256432144801207e+07  2.1256426427553739e+07  2.1256427443310298e+07  2.1256432634344708e+07  2.1256430013077490e+07  2.1256434378068831e+07  2.1256428387749366e+07  2.1256433767696355e+07  2.1256438935317684e+07  2.1256444376632217e+07  2.1256429807634890e+07  2.1256434282137621e+07  2.1256436334203284e+07  2.1256424348883383e+07  2.1258925985721767e+07  2.1256434299225800e+07  2.1256439275500037e+07  2.1256431040728621e+07  2.1256440129932810e+07  2.1256445879595667e+07  2.1256428893150326e+07  2.1256438526253786e+07  2.1256460090362106e+07  2.1256427814662486e+07  2.1256433523510139e+07  2.1256434598210838e+07  2.1256433244445115e+07  2.1256426161525365e+07  2.1256439242296580e+07  2.1256447666107647e+07  2.1270594569958791e+07  2.1256442325100947e+07  2.1256436208081502e+07  2.1256423615071397e+07  2.1256439682912271e+07  2.1256434532994475e+07  2.1256439022342920e+07  2.1256429470130406e+07  2.1256430205957670e+07  2.1256430351997521e+07  2.1256443569654740e+07  2.1256425207442466e+07  2.1256424937927559e+07  2.1256424417656668e+07  2.1256430773767147e+07  2.1256443473837275e+07  2.1256442396995313e+07  2.1256441914334234e+07  2.1256428690466229e+07  2.1256436638713732e+07  2.1256436682488926e+07  2.1256442357703324e+07  2.1256427895872619e+07  2.1256442209140968e+07  2.1256444298051026e+07  2.1256441402836986e+07  2.1256435558602255e+07  2.1256437917814642e+07  2.1256436918808728e+07  2.1256643344518527e+07  2.1256455909151755e+07  2.1256449518123683e+07  2.1256437541978635e+07  2.1256426429161988e+07  2.1256464423172779e+07  2.1256427084387820e+07  2.1256433344739638e+07  2.1256430750535797e+07  2.1256430719037570e+07  2.1256438088142198e+07  2.1256438233858328e+07  2.1256429144799650e+07  2.1256437076298337e+07  2.1256438216353223e+07  2.1256424531692609e+07  2.1256429152360205e+07  2.1256438990522683e+07  2.1256438749605011e+07  2.1256435902068567e+07  2.1256429395373881e+07  2.1256429417703617e+07  2.1256432080654915e+07  2.1256423278406739e+07  2.1256448121471152e+07  2.1256449340313140e+07  2.1256442216809265e+07  2.1256448990602661e+07  2.1256434544662513e+07  2.1256453252172083e+07  2.1256430975543212e+07  2.1256438033446435e+07  2.1256438130043607e+07  2.1256439383204740e+07  2.1256437705472570e+07  2.1256429612153567e+07  2.1256443540573072e+07  2.1256429123184089e+07  2.1256429202597111e+07  2.1256429580599472e+07  2.1256429565655090e+07  2.1256430885628141e+07  2.1256431538199455e+07  2.1256438790009789e+07  2.1256430639104262e+07  2.1256425105923682e+07  2.1256435332112249e+07  2.1256435026501175e+07  2.1256433234021034e+07  2.1256446906347562e+07  2.1256440766888086e+07  2.1256425482219238e+07  2.1256426844427194e+07  2.1256432108816743e+07  2.1256429918167416e+07  2.1256428117363371e+07  2.1256433042030860e+07  2.1256431590843707e+07  2.1256427039486010e+07  2.1256433223083325e+07  2.1256433924914028e+07  2.1256433996687446e+07  2.1264714953379005e+07  2.1256459549640831e+07  2.1256440402976166e+07  2.1256429194818504e+07  2.1256430826956488e+07  2.1256431414877295e+07  2.1256431158887859e+07  2.1256429076738626e+07  2.1256429664464429e+07  2.1256423738903802e+07  2.1256462944639608e+07  2.1256479494800679e+07  2.1256434390808485e+07  2.1256435143668547e+07  2.1256436845018871e+07  2.1256426999558475e+07  2.1256426335879389e+07  2.1256429092407461e+07  2.1256447216909744e+07  2.1256444072907984e+07  2.1256445752791855e+07  2.1256442575903196e+07  2.1256445682123549e+07  2.1256452925005101e+07  2.1256492348340280e+07  2.1256441017367233e+07  2.1256430664881900e+07  2.1256431380800225e+07  2.1256430660488654e+07  2.1256431970726881e+07  2.1256437912113868e+07  2.1256436741337400e+07  2.1256427541919872e+07  2.1256430243621845e+07  2.1256440347913671e+07  2.1256432537719842e+07  2.1256438373434074e+07  2.1256429570443925e+07  2.1256429736715164e+07  2.1256441469499331e+07  2.1256430580709744e+07  2.1256442053645428e+07  2.1256438259292495e+07  2.1256438594658643e+07  2.1256438099153042e+07  2.1256442097095065e+07  2.1256438097523246e+07  2.1256441359058741e+07  2.1256429497247819e+07  2.1256432438854642e+07  2.1256432123713616e+07  2.1256430509904370e+07  2.1256423846767496e+07  2.1256424420757789e+07  2.1256423933689337e+07  2.1256430856710419e+07  2.1256440059321154e+07  2.1256434049368478e+07  2.1256434375595998e+07  2.1256442752134208e+07  2.1256438548046418e+07  2.1256430061983421e+07  2.1256429490385219e+07  2.1256432354113776e+07  2.1256433389968812e+07  2.1256432408299938e+07  2.1256427479450285e+07  2.1256426513150956e+07  2.1256431988473408e+07  2.1256428571562592e+07  2.1256427270430025e+07  2.1256426711354602e+07  2.1256450435298868e+07  2.1256440571650859e+07  2.1256427198068749e+07  2.1256448133354463e+07  2.1256429586341787e+07  2.1256430732574586e+07  2.1256428742852781e+07  2.1256441809307609e+07  2.1256534588585243e+07  2.1256423427340925e+07  2.1256423390800398e+07  2.1256444322200771e+07  2.1256424020579807e+07  2.1256429720544748e+07  2.1256455818611789e+07  2.1256408872445520e+07  2.1256513120658349e+07  2.1256430581232898e+07  2.1256426269376870e+07  2.1256488356921554e+07  2.1256442236793462e+07  2.1256425900300216e+07  2.1256501360356990e+07  2.1256432867649298e+07  2.1256423394412804e+07  2.1256438633304399e+07  2.1256431323664505e+07  2.1256431604889359e+07  2.1256432015396729e+07  2.1256428067661181e+07  2.1256440520295039e+07  2.1256425699335244e+07  2.1256453270246670e+07  2.1256439218610782e+07  2.1256673285787292e+07  2.1256434087827478e+07  2.1256430481223855e+07  2.1256449805830110e+07  2.1256433165482253e+07  2.1256442559211954e+07  2.1256428865921076e+07  2.1256438582256716e+07  2.1256431192478154e+07  2.1256430031454772e+07  2.1256438960353427e+07  2.1256433646438353e+07  2.1256425467461180e+07  2.1256441813832466e+07  2.1256442918794163e+07  2.1256439845442623e+07  2.1256450671878662e+07  2.1256425760043126e+07  2.1256435044901025e+07  2.1256431358475775e+07  2.1256429801255796e+07  2.1256445484335575e+07  2.1256438219502248e+07  2.1256438286807716e+07  2.1256430298736408e+07  2.1256430996484976e+07  2.1256431811734993e+07  2.1256435517036486e+07  2.1256434906398136e+07  2.1267615155954320e+07  2.1256459982611228e+07  2.1256446351501629e+07  2.1256451069083501e+07  2.1256445588813331e+07  2.1256447701270331e+07  2.1256445280427206e+07  2.1256432912514150e+07  2.1256437175596744e+07  2.1256440733416233e+07  2.1256429168888278e+07  2.1256431592465330e+07  2.1256429998917855e+07  2.1256444039116319e+07  2.1256443113554761e+07  2.1256443675025154e+07  2.1256447286908783e+07  2.1256425260729786e+07  2.1256424977432232e+07  2.1256435701821510e+07  2.1256439742254775e+07  2.1256438994849510e+07  2.1256430707382578e+07  2.1256429186181370e+07  2.1256434910070904e+07  2.1256437159091059e+07  2.1256437866579667e+07  2.1256426729266405e+07  2.1256437449643437e+07  2.1256440409840770e+07  2.1256440862780459e+07  2.1256442283163488e+07  2.1256439970377602e+07  2.1256442540879872e+07  2.1256440142419487e+07  2.1256441122095972e+07  2.1256423676327221e+07  2.1256430698755540e+07  2.1256430996557020e+07  2.1256437577368915e+07  2.1256431250029042e+07  2.1256425156091139e+07  2.1256429868331335e+07  2.1256429743521996e+07  2.1256430179386504e+07  2.1256434520011771e+07  2.1256433285581462e+07  2.1256433117394485e+07  2.1256435822259948e+07  2.1256443523840047e+07  2.1256443243033182e+07  2.1256434800257802e+07  2.1256437142888155e+07  2.1256428131487560e+07  2.1256444669084463e+07  2.1256425348463539e+07  2.1256427092030037e+07  2.1256436618890204e+07  2.1256437461003680e+07  2.1256438432365127e+07  2.1256438085262723e+07  2.1256438817279905e+07  2.1256430030101087e+07  2.1256431525070112e+07  2.1256430768685717e+07  2.1256435023444850e+07  2.1256430097121306e+07  2.1256423206324805e+07  2.1256437655484527e+07  2.1256438202009637e+07  2.1256424437565502e+07  2.1256428536317501e+07  2.1256429114651095e+07  2.1256433668228630e+07  2.1256436036689993e+07  2.1256436973373320e+07  2.1256438065519996e+07  2.1256427445875816e+07  2.1256437951671720e+07  2.1256429756065205e+07  2.1256425935037680e+07  2.1256429097960249e+07  2.1256430407195855e+07  2.1256429743005309e+07  2.1256432514041375e+07  2.1256437378608830e+07  2.1256441826786224e+07  2.1256433044915225e+07  2.1256430186524164e+07  2.1256426122812480e+07  2.1256430714543760e+07  2.1256423747766409e+07  2.1256446286745396e+07  2.1256432425459754e+07  2.1256430593100816e+07  2.1256443905930080e+07  2.1256430217812259e+07  2.1256442930245977e+07  2.1256431708145589e+07  2.1256444316013530e+07  2.1256430806255344e+07  2.1256449385108195e+07  2.1256440259092201e+07  2.1256439310734939e+07  2.1256437982344478e+07  2.1256428215925496e+07  2.1256445073516324e+07  2.1256437050139166e+07  2.1256435689344190e+07  2.1256426235007282e+07  2.1256434021415524e+07  2.1256429123799093e+07  2.1256428254470155e+07  2.125642783