<?xml version="1.0"?>
<VTKFile type="UnstructuredGrid"  version="0.1"  >
<UnstructuredGrid>
<Piece  NumberOfPoints="3002" NumberOfCells="5870">
<Points>
<DataArray  type="Float64"  NumberOfComponents="3"  format="ascii">323455.6100285493 6048753.88242996 0  323455.6100285493 5954782.59950515 0  405920.1480513444 5954782.59950515 0  405920.1480513444 6048753.88242996 0  405920.1480513444 6001768.240967555 0  323455.6100285493 6001768.240967555 0  364687.8790399469 5954782.59950515 0  364687.8790399469 6048753.88242996 0  364687.8790399469 5996367.117560402 0  323455.6100285493 6025261.061698757 0  382226.6271443229 6022560.499995181 0  405920.1480513444 5978275.420236353 0  323455.6100285493 5978275.420236353 0  353897.8957397301 6022560.499995181 0  344071.7445342481 5954782.59950515 0  385304.0135456456 5954782.59950515 0  405920.1480513444 6025261.061698757 0  354379.8117870975 5975574.858532775 0  381582.8168806895 5978840.396198289 0  384950.2598624413 6001768.240967555 0  344643.0480768835 6003429.02033719 0  344071.7445342481 6048753.88242996 0  385304.0135456456 6048753.88242996 0  339717.0321562298 5986078.187627405 0  337515.036058786 5969821.016310448 0  368062.2614420265 6013076.224998265 0  368062.2614420265 6032044.774992097 0  393987.6142659165 5988729.699941677 0  405920.1480513444 6013514.651333156 0  392856.2821527076 6034589.119828064 0  393514.9611654527 5968369.338068204 0  339399.8087404341 6032061.482581838 0  323455.6100285493 6013514.651333156 0  374995.9462927963 5965504.865595459 0  354379.8117870975 6037976.901948514 0  338123.9088969378 6017031.529131207 0  367397.3120126425 5982072.559192053 0  351882.5752379905 5991998.990225234 0  376945.425450199 5991232.708824487 0  392265.0061656896 6013300.936254065 0  357029.7426706699 6006608.947964352 0  380093.6207558212 6036880.127749795 0  323455.6100285493 5966529.009870751 0  405920.1480513444 6037007.472064359 0  405920.1480513444 5966529.009870751 0  323455.6100285493 6037007.472064359 0  333763.6772813987 6048753.88242996 0  405920.1480513444 5990021.830601954 0  323455.6100285493 5990021.830601954 0  362879.3643765316 5966837.319094267 0  348367.6438548031 5965604.161682394 0  334493.1989038612 5996935.948935225 0  395068.5043068817 6023875.372615605 0  348216.0324377587 6013504.844950221 0  379305.9090074943 6011603.390019651 0  372523.5158233726 6003480.000732267 0  395435.2039568929 5999384.346358113 0  395612.080798495 5954782.59950515 0  333763.6772813987 5954782.59950515 0  395612.080798495 6048753.88242996 0  374995.9462927963 6048753.88242996 0  374995.9462927963 5954782.59950515 0  354379.8117870975 6048753.88242996 0  354379.8117870975 5954782.59950515 0  335074.5981535012 6007206.680367459 0  391925.2695590468 5978591.908877409 0  371969.1707190623 6022560.499995181 0  383872.162544519 5969415.106147043 0  358038.7139835292 5984533.09712744 0  369699.869182786 5973102.2359358 0  369841.9126663716 6041099.453006387 0  343176.7440329155 5994428.220622956 0  362933.5332293962 6024385.235173292 0  330640.1760208776 5984148.625419154 0  348684.7494355051 5983110.856817525 0  399094.9690929834 6007537.420809742 0  345447.6324516311 5974162.84917082 0  332859.7749513451 6039150.972778062 0  344517.044630671 6024057.945416138 0  332973.1214415312 6025037.914505113 0  341428.0126373461 6040493.820728126 0  385874.264691618 5992757.40885039 0  350337.3662538711 6030387.535304286 0  359887.2373602368 6016186.250094838 0  377097.8989316926 6029115.217702097 0  338917.7109078235 5961484.016839475 0  329495.5261590715 5972402.215053552 0  336644.7280634616 5978216.610794215 0  330688.6715098422 5962480.256438018 0  359899.8039476132 6031963.415584587 0  399746.255941904 6030426.523907755 0  385511.6875144855 6030368.508996127 0  387377.735783329 6040763.821024337 0  398832.192399829 5974431.100387635 0  387992.9498994246 5962432.032572681 0  405920.1480513444 5984148.625419153 0  364925.7641745284 6005782.953640081 0  361769.877068089 6041226.651684469 0  398452.9199001931 6040850.732439541 0  398946.6205243983 5962252.502309519 0  362305.5577564609 5975984.89789681 0  356822.8065216601 5998470.186307689 0  386900.7115926162 5984820.732438302 0  329528.0119279922 6032067.230024892 0  331139.6939744562 6013813.572928222 0  398457.5876798834 5982541.698799337 0  405920.1480513444 6019387.856515957 0  398685.5166750694 6017257.578706384 0  348587.9424884976 6042755.309150081 0  369841.9126663716 5960143.732550304 0  380149.979919221 5960143.732550304 0  359533.8454135222 5960172.384722514 0  377147.8814772839 5972649.581024994 0  341756.3455763521 6010124.092444684 0  355615.8176864882 5966311.193813809 0  369144.4338274571 5989807.770003954 0  375185.9047422862 5983510.422041401 0  323455.6100285493 6007641.446150355 0  391856.7960121195 6005888.565703365 0  371978.0245217044 5996361.134308098 0  405920.1480513444 5995895.035784755 0  378877.1880032702 5998073.745937059 0  359056.6617417652 5991643.489540118 0  399278.8743430426 5993436.466134224 0  386116.8775939071 6009922.097099247 0  323455.6100285493 6019387.856515957 0  388994.7833819839 6019826.789191471 0  348897.6207366391 5998116.079250046 0  345456.3301153719 6035064.814295612 0  323455.6100285493 6042880.677247159 0  334124.3013408988 5990072.953472659 0  377097.8989316926 6018059.782440464 0  323455.6100285493 5995895.035784755 0  342871.8474798963 5980154.238874755 0  373596.9793292385 6035659.183886081 0  380149.979919221 6048753.88242996 0  376327.9292813152 6042294.581731233 0  329163.3548105369 6004704.843558955 0  350303.9432136903 6007093.032074522 0  383982.6552804571 6015912.664375832 0  345515.490569988 5988567.439252969 0  379019.812877927 6004678.052169549 0  365541.9137639466 6018750.691894444 0  349225.7781606728 5954782.59950515 0  352493.3399767278 5960815.406895458 0  363683.8130458911 5986976.225872464 0  386666.791301207 5975084.583584332 0  368937.6553346639 5966171.092344863 0  400003.9882214358 5968352.273777306 0  328776.0063842635 5992958.433193355 0  339958.4428758043 5999572.344589042 0  354577.7732363954 6012555.454074449 0  328609.6436549741 6048753.88242996 0  382053.0280278458 5988228.496807038 0  330708.6817934912 5978212.973348036 0  372084.7734679543 5978495.086505585 0  358568.2738174705 5971419.415228934 0  328931.2672829705 5998832.905089681 0  323455.6100285493 6031134.266881558 0  405920.1480513444 5972402.215053552 0  405920.1480513444 6031134.266881558 0  323455.6100285493 5972402.215053552 0  405920.1480513444 5960655.804687951 0  323455.6100285493 5960655.804687951 0  405920.1480513444 6007641.446150355 0  323455.6100285493 5984148.625419153 0  405920.1480513444 6042880.677247159 0  346648.7613474604 5960023.05127712 0  342415.3891593561 5966358.988213831 0  350507.6510228226 5971111.740321856 0  391773.9667214506 5994456.117700323 0  338875.8905424621 6026088.827345025 0  361429.1735454847 6010511.262533597 0  389395.7028803263 6025805.543023561 0  392895.6464692951 6043315.288173481 0  332846.8296575367 6019296.633131165 0  373337.4404588729 6009693.515402478 0  336544.3064612215 6043648.151399015 0  348610.2411382072 6019567.839754772 0  381943.4597763228 6042183.394750732 0  355630.0631288611 6028071.82801846 0  363941.5238882306 6035967.852698964 0  328179.67203552 6022271.326978176 0  401066.2857736665 5998807.415073814 0  344387.1099621175 6029612.545574771 0  393435.2235156003 5960233.556458537 0  400735.9970493424 6022675.638064924 0  393708.5772019727 6029179.837160029 0  400609.0696943338 5987857.851798974 0  361753.6614662939 6001152.171757337 0  400766.1144249197 6048753.88242996 0  353363.0524357285 6002630.165620538 0  343248.328463803 6018790.640008039 0  356419.8105951758 6043365.392189237 0  390234.385899412 6000759.497967276 0  368336.1168551637 6000220.532318851 0  328609.6436549741 5954782.59950515 0  387520.8298169724 6035372.992507171 0  400588.0280660195 6035823.299583429 0  329021.6598427091 6043194.252697862 0  393371.710206733 5983576.325812268 0  393638.9721728675 5973623.513063556 0  371727.9212466564 6017113.044457142 0  364687.2762977295 5959941.212693035 0  374995.9462927962 5960346.83186599 0  369841.9126663716 5954782.59950515 0  400766.1144249197 5954782.59950515 0  338917.7109078234 5954782.59950515 0  369841.9126663716 6048753.88242996 0  359533.8454135222 5954782.59950515 0  390458.0471720704 6048753.88242996 0  338917.7109078234 6048753.88242996 0  390458.0471720704 5954782.59950515 0  359533.8454135222 6048753.88242996 0  380149.979919221 5954782.59950515 0  349225.7781606728 6048753.88242996 0  339867.4956514095 6005339.817053361 0  333737.9460226952 6002130.523287664 0  336955.8140048417 6012008.440073739 0  377097.8989316926 6023232.32559834 0  371748.9790486701 6028016.629988787 0  338146.5171983215 5993298.164761053 0  355016.8390227688 6017610.913088997 0  393953.1528190996 6018968.416019509 0  335185.8133477239 5965142.63403323 0  328616.6041642396 5967263.80307608 0  380314.9487662361 5965460.362415641 0  354622.8993466098 6032976.142863722 0  328521.4725131759 6027215.026914048 0  334465.0783479523 6034070.534389696 0  328123.6212682287 6009699.206425843 0  381889.5169855529 5973936.741901617 0  359122.3484437474 6036790.002992895 0  386341.6533148278 5979963.279841923 0  400798.2159679119 6012477.871311778 0  388538.3765260249 5967461.292146791 0  340833.8784183678 5975728.708105717 0  355307.6239213505 5988552.151815021 0  362181.4274823388 5981261.937800813 0  353784.0322742948 5981044.538811012 0  358045.1698423899 5978741.391518688 0  328423.7350325213 6036912.015930048 0  366897.6876966125 6027277.723668203 0  347355.1745641421 5978532.307510624 0  376820.5060332146 5979033.270735624 0  349378.1778589479 6024378.632814493 0  327189.2282939323 6016451.253924556 0  338433.8773236172 6036753.902881841 0  350141.9760340559 5987605.90026687 0  363794.7083927878 5991713.491814731 0  350325.1285660182 6035273.515460094 0  382355.9358007369 5983507.499638396 0  327107.0747437811 59811
[...]
<PointData  Scalars="f_23565-0"> 
<DataArray  type="Float64"  Name="f_23565-0"  format="ascii">2.3162077751582868e+07  2.3289791240310308e+07  2.3543840262152024e+07  2.3332035305460542e+07  2.3669841262836970e+07  2.3322467554101400e+07  2.3488672204825498e+07  2.3290234387038268e+07  2.4223153383872550e+07  2.3224529868275594e+07  2.3540736413185168e+07  2.3636551278201491e+07  2.3319676691787649e+07  2.3422099472084790e+07  2.3356565619910114e+07  2.3548568530751478e+07  2.3452527997236613e+07  2.3529307435192611e+07  2.3767251847899724e+07  2.3938685579367101e+07  2.3488455633097652e+07  2.3206479447174393e+07  2.3330236660435725e+07  2.3416342654431105e+07  2.3345124762097035e+07  2.3798200029529497e+07  2.3392033029207710e+07  2.3762441809819736e+07  2.3571814434053916e+07  2.3384043817429569e+07  2.3593773731343027e+07  2.3234217757113129e+07  2.3280443571189955e+07  2.3577149667897183e+07  2.3279006681499727e+07  2.3321111788097031e+07  2.3814899942854505e+07  2.3648899963737603e+07  2.4320085760499232e+07  2.3630671144331560e+07  2.3764350928886577e+07  2.3369301226010472e+07  2.3298992049071543e+07  2.3364067168204792e+07  2.3571022189612724e+07  2.3179173883459929e+07  2.3174075869027141e+07  2.3690461004554253e+07  2.3333814117693469e+07  2.3527230544616908e+07  2.3405106348966606e+07  2.3375777192260753e+07  2.3480794080343083e+07  2.3465435414398585e+07  2.3803155220974457e+07  2.4253108494970486e+07  2.3746432967979342e+07  2.3546975813251235e+07  2.3307661838267390e+07  2.3332399256851688e+07  2.3317996968358621e+07  2.3532569596463781e+07  2.3249442927007586e+07  2.3423595881434720e+07  2.3352313097383048e+07  2.3689869026873268e+07  2.3550922229376972e+07  2.3620847449979205e+07  2.3703847123455092e+07  2.3647396958995938e+07  2.3324812714989170e+07  2.3480434273498043e+07  2.3474062848968677e+07  2.3344834333403576e+07  2.3518847598028466e+07  2.3648894341708921e+07  2.3421625632812694e+07  2.3184913746879209e+07  2.3319195670864597e+07  2.3243704439792696e+07  2.3208549534088809e+07  2.3970738690805349e+07  2.3308930113781922e+07  2.3607049706605595e+07  2.3447114878711089e+07  2.3333906597701695e+07  2.3317090606681705e+07  2.3365033695128500e+07  2.3303444336871929e+07  2.3354925293041974e+07  2.3410451095630147e+07  2.3427979801927377e+07  2.3349183522878923e+07  2.3622753457086317e+07  2.3566777529200599e+07  2.3669458750730786e+07  2.4103999249069132e+07  2.3296382184797887e+07  2.3347491719234917e+07  2.3557763104991313e+07  2.3628976773897912e+07  2.3838782224357419e+07  2.3827487212541182e+07  2.3201391302294225e+07  2.3296229758908696e+07  2.3681537092188545e+07  2.3510841116734218e+07  2.3545202489875335e+07  2.3232505128471993e+07  2.3524824433282617e+07  2.3554115676184636e+07  2.3466491686405845e+07  2.3665083085935589e+07  2.3404995552734930e+07  2.3466702916172698e+07  2.4119346743197277e+07  2.3918747718182907e+07  2.3304247482633874e+07  2.3736713306142744e+07  2.4565188404046774e+07  2.3691936079181720e+07  2.4273526334753390e+07  2.3854810814492889e+07  2.3719696732145917e+07  2.3753701601274215e+07  2.3252642971531618e+07  2.3555601270008039e+07  2.3592473431097969e+07  2.3248616619802300e+07  2.3166415115312692e+07  2.3373081633412715e+07  2.3647942348325118e+07  2.3332315570530139e+07  2.3426749002442937e+07  2.3370860217229515e+07  2.3325780756525502e+07  2.3333518738061216e+07  2.3325811625667240e+07  2.3574576571211096e+07  2.3654885524092518e+07  2.3502365645693287e+07  2.4026213230560556e+07  2.3608455867292657e+07  2.3388938837148335e+07  2.3419171775988843e+07  2.3882506296899579e+07  2.3678882874747936e+07  2.3559312401831962e+07  2.3583213780922443e+07  2.3343959327543404e+07  2.3429935554105222e+07  2.3589429661782719e+07  2.3165213614119489e+07  2.4006688660577156e+07  2.3333569614183858e+07  2.3765435678337879e+07  2.3533223519643810e+07  2.3339340876481794e+07  2.3199297307265479e+07  2.3601145698672596e+07  2.3402169748791568e+07  2.3308982651288446e+07  2.3550996211714834e+07  2.3292355215475865e+07  2.3627598125228334e+07  2.3329168657726441e+07  2.3340237011228699e+07  2.3377003486830372e+07  2.3365045536607932e+07  2.3451762360841006e+07  2.3820621956587862e+07  2.3265995148180258e+07  2.3788760989706360e+07  2.3473238254307926e+07  2.3340105479127187e+07  2.3274714892634816e+07  2.3931663037019826e+07  2.3185100215743572e+07  2.3401608618432682e+07  2.3340676413662251e+07  2.3368866015156731e+07  2.3338116346906256e+07  2.3243569327563919e+07  2.3697221356805265e+07  2.3275983089062069e+07  2.3555441204906177e+07  2.3481533963769212e+07  2.3428255161309205e+07  2.3698392578151412e+07  2.4094292134008236e+07  2.3332373463992883e+07  2.3697796812076174e+07  2.3352843925787993e+07  2.3265926289201476e+07  2.3823300804283466e+07  2.4558560265741743e+07  2.3294386288018249e+07  2.3381272037190873e+07  2.3371573044516262e+07  2.3169704412184529e+07  2.3728549789816756e+07  2.3633380219102614e+07  2.3680775268315822e+07  2.3497943712584082e+07  2.3544364344754890e+07  2.3514202838594101e+07  2.3544928101375118e+07  2.3328746773647431e+07  2.3306009934794366e+07  2.3457693642256822e+07  2.3332220371988263e+07  2.3188194176587161e+07  2.3548848814087976e+07  2.3270815433493819e+07  2.3543752754668973e+07  2.3227292551392369e+07  2.3409076936291784e+07  2.3359972074016005e+07  2.3343281684968688e+07  2.3539717231706947e+07  2.3455621101568595e+07  2.3412379279100262e+07  2.3509309767649446e+07  2.3543535199190915e+07  2.3322763386476114e+07  2.3305520347352449e+07  2.3585508588930622e+07  2.3314695775142483e+07  2.3220425871451024e+07  2.3206092282354146e+07  2.3303559608027779e+07  2.3680742766152110e+07  2.3310087788502071e+07  2.3752349576471280e+07  2.3590720904465031e+07  2.3596626042869776e+07  2.3388235626507610e+07  2.3700852865956973e+07  2.3719471692234594e+07  2.3579633507817268e+07  2.3614946053432733e+07  2.3182939997726686e+07  2.3450345790372286e+07  2.3468313325719677e+07  2.3788651198219288e+07  2.3357522677757379e+07  2.3270386794632822e+07  2.3209474667165440e+07  2.3578446794493753e+07  2.4027540254482653e+07  2.3273511604445353e+07  2.3867160132246103e+07  2.3328440886572465e+07  2.3373485947216541e+07  2.3339745132686950e+07  2.4089881860196982e+07  2.3607217831839718e+07  2.3590667610002968e+07  2.3705718474898927e+07  2.3317592699482951e+07  2.3301195978379898e+07  2.3349303784976214e+07  2.3321670968920995e+07  2.3340411131191708e+07  2.3494015510983024e+07  2.3769901054468274e+07  2.3222268337559871e+07  2.3937901177271619e+07  2.3282811164921578e+07  2.3479675157712582e+07  2.3846917280417237e+07  2.4216875312405478e+07  2.3499905191521414e+07  2.3405119933528136e+07  2.3561012755654287e+07  2.3669165278012108e+07  2.3659827266610909e+07  2.3705817962868981e+07  2.3881832412868738e+07  2.3465975717961855e+07  2.3396882371508356e+07  2.3447305130956255e+07  2.3580219472413354e+07  2.3715217548954453e+07  2.3961378317028273e+07  2.3356816142057456e+07  2.3628647752066638e+07  2.3199373241511002e+07  2.3378367151348803e+07  2.3527823468003582e+07  2.3657417377260998e+07  2.3598795031753980e+07  2.3336111546486039e+07  2.3468383102351297e+07  2.3411649042460922e+07  2.4095207440975718e+07  2.3411393816358596e+07  2.3318513132204775e+07  2.3349381924239248e+07  2.3817158667629249e+07  2.3354509476595964e+07  2.3386900364356216e+07  2.3316565569422603e+07  2.3392714485539813e+07  2.3335534618095990e+07  2.3350490627724990e+07  2.3296918717388820e+07  2.4364232898863517e+07  2.3244513761695873e+07  2.3977461172984526e+07  2.3229949670706652e+07  2.3300977087059889e+07  2.3363494019074555e+07  2.3568895996104345e+07  2.3392905157127108e+07  2.3318845578297310e+07  2.3427651849810097e+07  2.3568997615645584e+07  2.3565143375598013e+07  2.3548345563841395e+07  2.3546734563759655e+07  2.3699037047772463e+07  2.3975645455760822e+07  2.3846710901606295e+07  2.3547542038405593e+07  2.3649499944158819e+07  2.3552695670124196e+07  2.3294145326270849e+07  2.3337741362796545e+07  2.3485033111363072e+07  2.3620599778249461e+07  2.3604045482918482e+07  2.3477876893285595e+07  2.3440297715852495e+07  2.3441326118487440e+07  2.3387939934878569e+07  2.4075946306289960e+07  2.3630721264534038e+07  2.3552862991178542e+07  2.3495943421140805e+07  2.3900900113033827e+07  2.3946998462142266e+07  2.4245496523387425e+07  2.4311566242189933e+07  2.3283725693368901e+07  2.3749334746060077e+07  2.3489529560725175e+07  2.3306975191134982e+07  2.3412714601824407e+07  2.3612623742496483e+07  2.3163294857916318e+07  2.3171855104739066e+07  2.3715403281228174e+07  2.3308707458336972e+07  2.3323726964685716e+07  2.3762435150394883e+07  2.3253918327005330e+07  2.3631085098541539e+07  2.3364635490027990e+07  2.3683165984250784e+07  2.3717164534519028e+07  2.3363114430283271e+07  2.3188230154251590e+07  2.4049693845472470e+07  2.3755838125375561e+07  2.3600707050169617e+07  2.3508617711421423e+07  2.3523182247807361e+07  2.3174018598425820e+07  2.3214393234420221e+07  2.3329133559818879e+07  2.4083748884583347e+07  2.3699588585095886e+07  2.3437098241707016e+07  2.3452571637665443e+07  2.3487269584798541e+07  2.3549308309017058e+07  2.3527670543631218e+07  2.3541758496826246e+07  2.3695807607028063e+07  2.3604876654038161e+07  2.3507244857227691e+07  2.3337164178369895e+07  2.3564017956419006e+07  2.3567023996051788e+07  2.3342526403029948e+07  2.3575072180451557e+07  2.3952383868266266e+07  2.3577400594597097e+07  2.3512830345022283e+07  2.3504808932883795e+07  2.3475642515697639e+07  2.3303745057684839e+07  2.3441754859125808e+07  2.3793664858448293e+07  2.3375742480032772e+07  2.3326301818134587e+07  2.3368752316898715e+07  2.3404546170624297e+07  2.3312889099720735e+07  2.3406930356466845e+07  2.3401244659528866e+07  2.3224546785096787e+07  2.3395818241973706e+07  2.3694370715639584e+07  2.3610458686107550e+07  2.3664249346566163e+07  2.3725112245030917e+07  2.3783604297078017e+07  2.3488831754182875e+07  2.3703337443826426e+07  2.3354919289430168e+07  2.3337916542137928e+07  2.3701534225478724e+07  2.3192824548514552e+07  2.3911749421248097e+07  2.4560567172373157e+07  2.3313819385871060e+07  2.3258928893771205e+07  2.3564594750047807e+07  2.3359631271732640e+07  2.3858049938365139e+07  2.3283632986192107e+07  2.3328136389826439e+07  2.3381460242054272e+07  2.3391161732621804e+07  2.3333643261452515e+07  2.3700070193819068e+07  2.3728876068224393e+07  2.3600922118027724e+07  2.3619218444684424e+07  2.3365393357538249e+07  2.3811903260085057e+07  2.3780741019042581e+07  2.3859069833343439e+07  2.3595289258790892e+07  2.3352881428485133e+07  2.3679420792077929e+07  2.3635799481726173e+07  2.3542092209436968e+07  2.3922267976585463e+07  2.3495696428930469e+07  2.3378491735559590e+07  2.4344539918676324e+07  2.3311289090203341e+07  2.3516343280774031e+07  2.3655762287557904e+07  2.3656779418469086e+07  2.3353936280719131e+07  2.3379134701884817e+07  2.3395798523971494e+07  2.4500567993777353e+07  2.3772145309876304e+07  2.3585073746739220e+07  2.3593427249080941e+07  2.3589742470996562e+07  2.3286356883834317e+07  2.3642136806811642e+07  2.3515589071452644e+07  2.3689853756413300e+07  2.3363395370941501e+07  2.3247679904467184e+07  2.3275949582306080e+07  2.3389023381486345e+07  2.3307472105805062e+07  2.3423030854508936e+07  2.3307613525072675e+07  2.3442662014966886e+07  2.3548505297176369e+07  2.3756643612919953e+07  2.3347887259322762e+07  2.3446888043197546e+07  2.3525513866107799e+07  2.3191704216069195e+07  2.4369037082939755e+07  2.3422047775917180e+07  2.3561758926564686e+07  2.3378021966266718e+07  2.3573058779591274e+07  2.3728526371208910e+07  2.3322740506618395e+07  2.3588531061751958e+07  2.4177733127925828e+07  2.3282431367102511e+07  2.3409599097971525e+07  2.3427446236576110e+07  2.3392891444588840e+07  2.3238300800248958e+07  2.3583497649933565e+07  2.3847514624294560e+07  2.4548864942958415e+07  2.3682023730692994e+07  2.3469359375494823e+07  2.3172921821294118e+07  2.3622649590970360e+07  2.3446764823192801e+07  2.3586979545563076e+07  2.3310833203021742e+07  2.3326546356594559e+07  2.3328201750657059e+07  2.3723175634030323e+07  2.3211314029072974e+07  2.3205046378583871e+07  2.3192414548764925e+07  2.3332257302473191e+07  2.3724221719841614e+07  2.3647735561779264e+07  2.3682741477680381e+07  2.3292992703621916e+07  2.3510239755571939e+07  2.3490754307158329e+07  2.3643218213376690e+07  2.3276825824701939e+07  2.3675800241538323e+07  2.3724265942842122e+07  2.3640911173278045e+07  2.3455038821252011e+07  2.3514191851673286e+07  2.3492553886814669e+07  2.4060022084473439e+07  2.3908180714452881e+07  2.3859858387292612e+07  2.3527281254072063e+07  2.3249911965846781e+07  2.4022829573532064e+07  2.3270468213415090e+07  2.3396313869271778e+07  2.3336678357152548e+07  2.3333989928630717e+07  2.3548171477787718e+07  2.3551588224188797e+07  2.3334137713603441e+07  2.3536311295975845e+07  2.3554467905277580e+07  2.3197201616928373e+07  2.3331266148470707e+07  2.3577656812558554e+07  2.3569663814613067e+07  2.3510128458692763e+07  2.3290424745240882e+07  2.3291000508400951e+07  2.3412903962430242e+07  2.3164681330992050e+07  2.3772422537978806e+07  2.3808941385879729e+07  2.3659199294450555e+07  2.3872551183738433e+07  2.3480955240296792e+07  2.3891825812744241e+07  2.3332591182673983e+07  2.3526026452188458e+07  2.3534244729721092e+07  2.3571084845666729e+07  2.3567158606800064e+07  2.3332895897145584e+07  2.3705417650209740e+07  2.3332547511317365e+07  2.3334961095219105e+07  2.3344323924709376e+07  2.3344791610722695e+07  2.3337121494874321e+07  2.3353905515821896e+07  2.3586288729551457e+07  2.3357459758332297e+07  2.3214650850895833e+07  2.3461816424863569e+07  2.3448689698076218e+07  2.3433942859870683e+07  2.3808844557700582e+07  2.3651105949191369e+07  2.3225702736070823e+07  2.3257466623923473e+07  2.3414375740430094e+07  2.3348612073991690e+07  2.3292968207902778e+07  2.3387354964997672e+07  2.3348843386544485e+07  2.3259420929175708e+07  2.3441773041676592e+07  2.3462172663248878e+07  2.3415165244751021e+07  2.4396034407772258e+07  2.4093747044753313e+07  2.3586359873665590e+07  2.3334240476667762e+07  2.3329436278470688e+07  2.3345031315318231e+07  2.3339714128255706e+07  2.3332262941780858e+07  2.3314369789951906e+07  2.3176380112061050e+07  2.4011093411799718e+07  2.4112212889922969e+07  2.3423144430748340e+07  2.3442036577758286e+07  2.3487135234374441e+07  2.3254351077777151e+07  2.3238302123951349e+07  2.3322620401074685e+07  2.3775612614461880e+07  2.3698701934536658e+07  2.3732109655650634e+07  2.3694047202425856e+07  2.3788953248295143e+07  2.3819578036066316e+07  2.3923303935202338e+07  2.3639015852677234e+07  2.3340985529614095e+07  2.3355152761042833e+07  2.3338468284202773e+07  2.3358711983745214e+07  2.3545723034516688e+07  2.3541272061706096e+07  2.3266674793794498e+07  2.3314405290961333e+07  2.3618799398552950e+07  2.3426120827062834e+07  2.3559424511909157e+07  2.3295245714402862e+07  2.3350125208886541e+07  2.3653660814544376e+07  2.3324837015420333e+07  2.3684007616011135e+07  2.3554411021839295e+07  2.3561966785113223e+07  2.3549290291410018e+07  2.3627491988770738e+07  2.3521253910821557e+07  2.3629075138612866e+07  2.3322799141306691e+07  2.3372278695835162e+07  2.3363615554838177e+07  2.3322058464577693e+07  2.3180520552104238e+07  2.3195795608484525e+07  2.3182114228219181e+07  2.3357668456532754e+07  2.3567737330289107e+07  2.3467335855575729e+07  2.3475709211327951e+07  2.3637305100907110e+07  2.3545829438811276e+07  2.3347835886728842e+07  2.3331410877127349e+07  2.3407729579034600e+07  2.3411530646152239e+07  2.3414199775950044e+07  2.3280894909819383e+07  2.3254474893459655e+07  2.3359604072720688e+07  2.3296149243073039e+07  2.3263843356205121e+07  2.3248937641698390e+07  2.3903910416845366e+07  2.3646509797302723e+07  2.3260109204420581e+07  2.3820204790940996e+07  2.3336816193643287e+07  2.3368267874713894e+07  2.3315221072408382e+07  2.3678679069853660e+07  2.4149932802372389e+07  2.3168934726304244e+07  2.3167812882560637e+07  2.3753940112344984e+07  2.3185217227351326e+07  2.3346885506281473e+07  2.3941991212686490e+07  2.4134169075961206e+07  2.4125714217980590e+07  2.3372924149314467e+07  2.3240006739398301e+07  2.4140657681515984e+07  2.3694989207779776e+07  2.3228178412405659e+07  2.4228909906866543e+07  2.3383118553149406e+07  2.3167463195068639e+07  2.3560342227271635e+07  2.3342001361144852e+07  2.3399640167230114e+07  2.3395517786150459e+07  2.3298698156790990e+07  2.3610645894139331e+07  2.3228382216973878e+07  2.3966595597977739e+07  2.3547443414771080e+07  2.4276141054102831e+07  2.3447778564582873e+07  2.3331426473838840e+07  2.3895902745240260e+07  2.3441078192863978e+07  2.3689752136505794e+07  2.3322491669035655e+07  2.3591911116135903e+07  2.3389227029469624e+07  2.3357814174574442e+07  2.3597616263555985e+07  2.3448057555496983e+07  2.3220426531979121e+07  2.3681226668258280e+07  2.3691630627749279e+07  2.3610558965089109e+07  2.3919517650386844e+07  2.3226082326806739e+07  2.3494623052027378e+07  2.3374746028308742e+07  2.3333361458542168e+07  2.3747782559899438e+07  2.3546746631008230e+07  2.3547758780136213e+07  2.3363093872171804e+07  2.3382334492520709e+07  2.3403368524853598e+07  2.3458377010146122e+07  2.3441034514371756e+07  2.4419951650484864e+07  2.4058104657515313e+07  2.3810441457588598e+07  2.3849097885447763e+07  2.3794027735989504e+07  2.3860164074457832e+07  2.3781261247968230e+07  2.3426833370541498e+07  2.3499008543224100e+07  2.3634452216269407e+07  2.3332609639499675e+07  2.3388655617154978e+07  2.3353651165743258e+07  2.3671909435056459e+07  2.3651839811699752e+07  2.3673151493625373e+07  2.3811482550088789e+07  2.3216056175183292e+07  2.3207287052440021e+07  2.3501690231426928e+07  2.3586201815167490e+07  2.3567189421832278e+07  2.3325820705108307e+07  2.3306800618380021e+07  2.3475663844454162e+07  2.3537084707213871e+07  2.3544260741633732e+07  2.3260674653345171e+07  2.3516971723822176e+07  2.3615871107320495e+07  2.3631349021932799e+07  2.3679835750883173e+07  2.3596684706509035e+07  2.3630800079565592e+07  2.3606902780134484e+07  2.3623477285677169e+07  2.3175152949117694e+07  2.3325097408224907e+07  2.3333018983826660e+07  2.3564199377327584e+07  2.3386904207446169e+07  2.3216780965580050e+07  2.3303164458674464e+07  2.3299977896361921e+07  2.3311756154921036e+07  2.3472945449681617e+07  2.3440579318945594e+07  2.3437069628141653e+07  2.3502249933608390e+07  2.3708316025139738e+07  2.3703198576098353e+07  2.3436255267701771e+07  2.3540466100226548e+07  2.3298227778663777e+07  2.3744587717731267e+07  2.3214855447461646e+07  2.3265767479882844e+07  2.3491014871908009e+07  2.3515234767253056e+07  2.3549407392932437e+07  2.3536073820003960e+07  2.3558265927064333e+07  2.3333002165938847e+07  2.3370802870766412e+07  2.3348340914612904e+07  2.3445223380140409e+07  2.3309091097840209e+07  2.3162844767311879e+07  2.3524359719602987e+07  2.3549108782346077e+07  2.3196863851627357e+07  2.3312445622621663e+07  2.3331425087330192e+07  2.3406164097406525e+07  2.3473882286761001e+07  2.3502296729565509e+07  2.3539172103160504e+07  2.3280918463597938e+07  2.3545867999614455e+07  2.3299998815127838e+07  2.3238467070334256e+07  2.3332503115764122e+07  2.3317378585154474e+07  2.3349088066496156e+07  2.4202000897530593e+07  2.3540160655469403e+07  2.3677522919550464e+07  2.3408184931521554e+07  2.3312394678710438e+07  2.3234154830579147e+07  2.3375710342404138e+07  2.3177688548812479e+07  2.3781636995625865e+07  2.3417141783557251e+07  2.3323627006984089e+07  2.3719848888427846e+07  2.3312350323146358e+07  2.3697278877875257e+07  2.3359853611174475e+07  2.3743372031042621e+07  2.3336564044588678e+07  2.3914471088528369e+07  2.3607573217308853e+07  2.3581003004208196e+07  2.3535156685936932e+07  2.3299319908555772e+07  2.3751369459336143e+07  2.3547462642737027e+07  2.3510966500339385e+07  2.3245931731864087e+07  2.3461765716343656e+07  2.3333477373803701e+07  2.3298542979771182e+07  2.3288295